TITLE = "z-anode/separator fields" 
FILETYPE = FULL
VARIABLES = "x" "y" "z" "Cf" "Cs" "Us" "Ps" "Pf" "J1""J2""J" "Ph" "Pi" "Qk" "Qo" "Qr" "Tcell""nLi" 
ZONE
I=40,     J=40,     K=1
ZONETYPE=Ordered, DATAPACKING=Point
1.812500e+03	2.400000e+03	7.500000e+01	1.117270e+03	2.610757e-02	3.691071e-01	1.516723e-01	3.500244e-03	1.407619e+00	-0.000000e+00	1.407619e+00	0.000000e+00	0.000000e+00	1.243752e-01	5.231187e-02	2.448202e-02	2.735327e+02	0.000000e+00
5.437500e+03	2.400000e+03	7.500000e+01	1.117270e+03	2.610763e-02	3.691066e-01	1.516723e-01	3.500334e-03	1.407631e+00	-0.000000e+00	1.407631e+00	0.000000e+00	0.000000e+00	1.243760e-01	5.231243e-02	2.448227e-02	2.735329e+02	0.000000e+00
9.062500e+03	2.400000e+03	7.500000e+01	1.117270e+03	2.610767e-02	3.691062e-01	1.516723e-01	3.500611e-03	1.407641e+00	-0.000000e+00	1.407641e+00	0.000000e+00	0.000000e+00	1.243766e-01	5.231287e-02	2.448247e-02	2.735331e+02	0.000000e+00
1.268750e+04	2.400000e+03	7.500000e+01	1.117270e+03	2.610770e-02	3.691058e-01	1.516723e-01	3.501079e-03	1.407649e+00	-0.000000e+00	1.407649e+00	0.000000e+00	0.000000e+00	1.243771e-01	5.231320e-02	2.448261e-02	2.735332e+02	0.000000e+00
1.631250e+04	2.400000e+03	7.500000e+01	1.117269e+03	2.610773e-02	3.691056e-01	1.516723e-01	3.501729e-03	1.407654e+00	-0.000000e+00	1.407654e+00	0.000000e+00	0.000000e+00	1.243775e-01	5.231345e-02	2.448271e-02	2.735332e+02	0.000000e+00
1.993750e+04	2.400000e+03	7.500000e+01	1.117269e+03	2.610775e-02	3.691054e-01	1.516723e-01	3.502552e-03	1.407658e+00	-0.000000e+00	1.407658e+00	0.000000e+00	0.000000e+00	1.243778e-01	5.231365e-02	2.448279e-02	2.735333e+02	0.000000e+00
2.356250e+04	2.400000e+03	7.500000e+01	1.117269e+03	2.610777e-02	3.691051e-01	1.516723e-01	3.503540e-03	1.407661e+00	-0.000000e+00	1.407661e+00	0.000000e+00	0.000000e+00	1.243781e-01	5.231381e-02	2.448285e-02	2.735333e+02	0.000000e+00
2.718750e+04	2.400000e+03	7.500000e+01	1.117269e+03	2.610779e-02	3.691049e-01	1.516723e-01	3.504684e-03	1.407664e+00	-0.000000e+00	1.407664e+00	0.000000e+00	0.000000e+00	1.243783e-01	5.231396e-02	2.448291e-02	2.735333e+02	0.000000e+00
3.081250e+04	2.400000e+03	7.500000e+01	1.117269e+03	2.610781e-02	3.691047e-01	1.516723e-01	3.505976e-03	1.407667e+00	-0.000000e+00	1.407667e+00	0.000000e+00	0.000000e+00	1.243785e-01	5.231410e-02	2.448296e-02	2.735333e+02	0.000000e+00
3.443750e+04	2.400000e+03	7.500000e+01	1.117269e+03	2.610784e-02	3.691044e-01	1.516723e-01	3.507406e-03	1.407669e+00	-0.000000e+00	1.407669e+00	0.000000e+00	0.000000e+00	1.243788e-01	5.231424e-02	2.448300e-02	2.735334e+02	0.000000e+00
3.806250e+04	2.400000e+03	7.500000e+01	1.117269e+03	2.610786e-02	3.691042e-01	1.516723e-01	3.508964e-03	1.407671e+00	-0.000000e+00	1.407671e+00	0.000000e+00	0.000000e+00	1.243790e-01	5.231438e-02	2.448305e-02	2.735334e+02	0.000000e+00
4.168750e+04	2.400000e+03	7.500000e+01	1.117269e+03	2.610789e-02	3.691039e-01	1.516723e-01	3.510640e-03	1.407674e+00	-0.000000e+00	1.407674e+00	0.000000e+00	0.000000e+00	1.243792e-01	5.231453e-02	2.448310e-02	2.735334e+02	0.000000e+00
4.531250e+04	2.400000e+03	7.500000e+01	1.117269e+03	2.610792e-02	3.691036e-01	1.516723e-01	3.512424e-03	1.407677e+00	-0.000000e+00	1.407677e+00	0.000000e+00	0.000000e+00	1.243795e-01	5.231469e-02	2.448315e-02	2.735334e+02	0.000000e+00
4.893750e+04	2.400000e+03	7.500000e+01	1.117269e+03	2.610795e-02	3.691032e-01	1.516723e-01	3.514305e-03	1.407680e+00	-0.000000e+00	1.407680e+00	0.000000e+00	0.000000e+00	1.243798e-01	5.231486e-02	2.448321e-02	2.735334e+02	0.000000e+00
5.256250e+04	2.400000e+03	7.500000e+01	1.117268e+03	2.610798e-02	3.691029e-01	1.516723e-01	3.516269e-03	1.407682e+00	-0.000000e+00	1.407682e+00	0.000000e+00	0.000000e+00	1.243801e-01	5.231503e-02	2.448327e-02	2.735334e+02	0.000000e+00
5.618750e+04	2.400000e+03	7.500000e+01	1.117268e+03	2.610802e-02	3.691025e-01	1.516723e-01	3.518307e-03	1.407686e+00	-0.000000e+00	1.407686e+00	0.000000e+00	0.000000e+00	1.243804e-01	5.231521e-02	2.448333e-02	2.735334e+02	0.000000e+00
5.981250e+04	2.400000e+03	7.500000e+01	1.117268e+03	2.610805e-02	3.691022e-01	1.516723e-01	3.520404e-03	1.407689e+00	-0.000000e+00	1.407689e+00	0.000000e+00	0.000000e+00	1.243807e-01	5.231539e-02	2.448339e-02	2.735334e+02	0.000000e+00
6.343750e+04	2.400000e+03	7.500000e+01	1.117268e+03	2.610809e-02	3.691018e-01	1.516723e-01	3.522548e-03	1.407692e+00	-0.000000e+00	1.407692e+00	0.000000e+00	0.000000e+00	1.243810e-01	5.231558e-02	2.448345e-02	2.735334e+02	0.000000e+00
6.706250e+04	2.400000e+03	7.500000e+01	1.117268e+03	2.610812e-02	3.691014e-01	1.516723e-01	3.524725e-03	1.407695e+00	-0.000000e+00	1.407695e+00	0.000000e+00	0.000000e+00	1.243813e-01	5.231577e-02	2.448351e-02	2.735334e+02	0.000000e+00
7.068750e+04	2.400000e+03	7.500000e+01	1.117268e+03	2.610816e-02	3.691010e-01	1.516723e-01	3.526923e-03	1.407698e+00	-0.000000e+00	1.407698e+00	0.000000e+00	0.000000e+00	1.243816e-01	5.231597e-02	2.448358e-02	2.735334e+02	0.000000e+00
7.431250e+04	2.400000e+03	7.500000e+01	1.117267e+03	2.610820e-02	3.691007e-01	1.516723e-01	3.529128e-03	1.407702e+00	-0.000000e+00	1.407702e+00	0.000000e+00	0.000000e+00	1.243819e-01	5.231616e-02	2.448364e-02	2.735334e+02	0.000000e+00
7.793750e+04	2.400000e+03	7.500000e+01	1.117267e+03	2.610823e-02	3.691003e-01	1.516723e-01	3.531325e-03	1.407705e+00	-0.000000e+00	1.407705e+00	0.000000e+00	0.000000e+00	1.243822e-01	5.231636e-02	2.448371e-02	2.735334e+02	0.000000e+00
8.156250e+04	2.400000e+03	7.500000e+01	1.117267e+03	2.610827e-02	3.690999e-01	1.516723e-01	3.533502e-03	1.407708e+00	-0.000000e+00	1.407708e+00	0.000000e+00	0.000000e+00	1.243826e-01	5.231655e-02	2.448377e-02	2.735334e+02	0.000000e+00
8.518750e+04	2.400000e+03	7.500000e+01	1.117267e+03	2.610830e-02	3.690995e-01	1.516723e-01	3.535645e-03	1.407711e+00	-0.000000e+00	1.407711e+00	0.000000e+00	0.000000e+00	1.243829e-01	5.231674e-02	2.448383e-02	2.735335e+02	0.000000e+00
8.881250e+04	2.400000e+03	7.500000e+01	1.117267e+03	2.610834e-02	3.690991e-01	1.516723e-01	3.537741e-03	1.407715e+00	-0.000000e+00	1.407715e+00	0.000000e+00	0.000000e+00	1.243832e-01	5.231692e-02	2.448389e-02	2.735335e+02	0.000000e+00
9.243750e+04	2.400000e+03	7.500000e+01	1.117267e+03	2.610837e-02	3.690988e-01	1.516723e-01	3.539776e-03	1.407718e+00	-0.000000e+00	1.407718e+00	0.000000e+00	0.000000e+00	1.243835e-01	5.231710e-02	2.448395e-02	2.735335e+02	0.000000e+00
9.606250e+04	2.400000e+03	7.500000e+01	1.117266e+03	2.610841e-02	3.690984e-01	1.516723e-01	3.541739e-03	1.407721e+00	-0.000000e+00	1.407721e+00	0.000000e+00	0.000000e+00	1.243838e-01	5.231728e-02	2.448401e-02	2.735335e+02	0.000000e+00
9.968750e+04	2.400000e+03	7.500000e+01	1.117266e+03	2.610844e-02	3.690981e-01	1.516723e-01	3.543618e-03	1.407723e+00	-0.000000e+00	1.407723e+00	0.000000e+00	0.000000e+00	1.243840e-01	5.231744e-02	2.448406e-02	2.735335e+02	0.000000e+00
1.033125e+05	2.400000e+03	7.500000e+01	1.117266e+03	2.610847e-02	3.690978e-01	1.516723e-01	3.545401e-03	1.407726e+00	-0.000000e+00	1.407726e+00	0.000000e+00	0.000000e+00	1.243843e-01	5.231760e-02	2.448411e-02	2.735335e+02	0.000000e+00
1.069375e+05	2.400000e+03	7.500000e+01	1.117266e+03	2.610850e-02	3.690975e-01	1.516723e-01	3.547077e-03	1.407728e+00	-0.000000e+00	1.407728e+00	0.000000e+00	0.000000e+00	1.243845e-01	5.231774e-02	2.448416e-02	2.735335e+02	0.000000e+00
1.105625e+05	2.400000e+03	7.500000e+01	1.117266e+03	2.610852e-02	3.690972e-01	1.516723e-01	3.548638e-03	1.407730e+00	-0.000000e+00	1.407730e+00	0.000000e+00	0.000000e+00	1.243847e-01	5.231786e-02	2.448420e-02	2.735335e+02	0.000000e+00
1.141875e+05	2.400000e+03	7.500000e+01	1.117266e+03	2.610854e-02	3.690970e-01	1.516723e-01	3.550074e-03	1.407732e+00	-0.000000e+00	1.407732e+00	0.000000e+00	0.000000e+00	1.243849e-01	5.231795e-02	2.448422e-02	2.735335e+02	0.000000e+00
1.178125e+05	2.400000e+03	7.500000e+01	1.117266e+03	2.610856e-02	3.690968e-01	1.516723e-01	3.551379e-03	1.407732e+00	-0.000000e+00	1.407732e+00	0.000000e+00	0.000000e+00	1.243850e-01	5.231800e-02	2.448423e-02	2.735335e+02	0.000000e+00
1.214375e+05	2.400000e+03	7.500000e+01	1.117266e+03	2.610858e-02	3.690966e-01	1.516723e-01	3.552546e-03	1.407732e+00	-0.000000e+00	1.407732e+00	0.000000e+00	0.000000e+00	1.243850e-01	5.231801e-02	2.448422e-02	2.735334e+02	0.000000e+00
1.250625e+05	2.400000e+03	7.500000e+01	1.117265e+03	2.610858e-02	3.690966e-01	1.516723e-01	3.553573e-03	1.407729e+00	-0.000000e+00	1.407729e+00	0.000000e+00	0.000000e+00	1.243849e-01	5.231793e-02	2.448418e-02	2.735334e+02	0.000000e+00
1.286875e+05	2.400000e+03	7.500000e+01	1.117265e+03	2.610858e-02	3.690966e-01	1.516723e-01	3.554457e-03	1.407725e+00	-0.000000e+00	1.407725e+00	0.000000e+00	0.000000e+00	1.243846e-01	5.231776e-02	2.448410e-02	2.735333e+02	0.000000e+00
1.323125e+05	2.400000e+03	7.500000e+01	1.117265e+03	2.610856e-02	3.690968e-01	1.516723e-01	3.555197e-03	1.407718e+00	-0.000000e+00	1.407718e+00	0.000000e+00	0.000000e+00	1.243842e-01	5.231747e-02	2.448396e-02	2.735331e+02	0.000000e+00
1.359375e+05	2.400000e+03	7.500000e+01	1.117265e+03	2.610852e-02	3.690972e-01	1.516723e-01	3.555794e-03	1.407707e+00	-0.000000e+00	1.407707e+00	0.000000e+00	0.000000e+00	1.243836e-01	5.231700e-02	2.448374e-02	2.735329e+02	0.000000e+00
1.395625e+05	2.400000e+03	7.500000e+01	1.117265e+03	2.610846e-02	3.690977e-01	1.516723e-01	3.556246e-03	1.407692e+00	-0.000000e+00	1.407692e+00	0.000000e+00	0.000000e+00	1.243827e-01	5.231637e-02	2.448345e-02	2.735327e+02	0.000000e+00
1.431875e+05	2.400000e+03	7.500000e+01	1.117265e+03	2.610839e-02	3.690984e-01	1.516723e-01	3.556494e-03	1.407677e+00	-0.000000e+00	1.407677e+00	0.000000e+00	0.000000e+00	1.243818e-01	5.231571e-02	2.448315e-02	2.735324e+02	0.000000e+00
1.812500e+03	7.200000e+03	7.500000e+01	1.117269e+03	2.610776e-02	3.691052e-01	1.516723e-01	3.500299e-03	1.407643e+00	-0.000000e+00	1.407643e+00	0.000000e+00	0.000000e+00	1.243771e-01	5.231313e-02	2.448250e-02	2.735329e+02	0.000000e+00
5.437500e+03	7.200000e+03	7.500000e+01	1.117269e+03	2.610781e-02	3.691046e-01	1.516723e-01	3.500389e-03	1.407656e+00	-0.000000e+00	1.407656e+00	0.000000e+00	0.000000e+00	1.243779e-01	5.231370e-02	2.448276e-02	2.735331e+02	0.000000e+00
9.062500e+03	7.200000e+03	7.500000e+01	1.117269e+03	2.610786e-02	3.691042e-01	1.516723e-01	3.500670e-03	1.407666e+00	-0.000000e+00	1.407666e+00	0.000000e+00	0.000000e+00	1.243786e-01	5.231415e-02	2.448296e-02	2.735333e+02	0.000000e+00
1.268750e+04	7.200000e+03	7.500000e+01	1.117269e+03	2.610789e-02	3.691039e-01	1.516723e-01	3.501143e-03	1.407674e+00	-0.000000e+00	1.407674e+00	0.000000e+00	0.000000e+00	1.243791e-01	5.231447e-02	2.448310e-02	2.735334e+02	0.000000e+00
1.631250e+04	7.200000e+03	7.500000e+01	1.117269e+03	2.610791e-02	3.691036e-01	1.516723e-01	3.501800e-03	1.407679e+00	-0.000000e+00	1.407679e+00	0.000000e+00	0.000000e+00	1.243795e-01	5.231472e-02	2.448320e-02	2.735335e+02	0.000000e+00
1.993750e+04	7.200000e+03	7.500000e+01	1.117269e+03	2.610794e-02	3.691034e-01	1.516723e-01	3.502632e-03	1.407683e+00	-0.000000e+00	1.407683e+00	0.000000e+00	0.000000e+00	1.243798e-01	5.231492e-02	2.448328e-02	2.735335e+02	0.000000e+00
2.356250e+04	7.200000e+03	7.500000e+01	1.117269e+03	2.610796e-02	3.691032e-01	1.516723e-01	3.503631e-03	1.407686e+00	-0.000000e+00	1.407686e+00	0.000000e+00	0.000000e+00	1.243800e-01	5.231509e-02	2.448334e-02	2.735336e+02	0.000000e+00
2.718750e+04	7.200000e+03	7.500000e+01	1.117269e+03	2.610798e-02	3.691030e-01	1.516723e-01	3.504788e-03	1.407689e+00	-0.000000e+00	1.407689e+00	0.000000e+00	0.000000e+00	1.243803e-01	5.231523e-02	2.448340e-02	2.735336e+02	0.000000e+00
3.081250e+04	7.200000e+03	7.500000e+01	1.117269e+03	2.610800e-02	3.691027e-01	1.516723e-01	3.506094e-03	1.407692e+00	-0.000000e+00	1.407692e+00	0.000000e+00	0.000000e+00	1.243805e-01	5.231537e-02	2.448345e-02	2.735336e+02	0.000000e+00
3.443750e+04	7.200000e+03	7.500000e+01	1.117268e+03	2.610803e-02	3.691025e-01	1.516723e-01	3.507539e-03	1.407694e+00	-0.000000e+00	1.407694e+00	0.000000e+00	0.000000e+00	1.243807e-01	5.231552e-02	2.448349e-02	2.735336e+02	0.000000e+00
3.806250e+04	7.200000e+03	7.500000e+01	1.117268e+03	2.610805e-02	3.691022e-01	1.516723e-01	3.509114e-03	1.407697e+00	-0.000000e+00	1.407697e+00	0.000000e+00	0.000000e+00	1.243810e-01	5.231566e-02	2.448354e-02	2.735336e+02	0.000000e+00
4.168750e+04	7.200000e+03	7.500000e+01	1.117268e+03	2.610808e-02	3.691019e-01	1.516723e-01	3.510809e-03	1.407699e+00	-0.000000e+00	1.407699e+00	0.000000e+00	0.000000e+00	1.243812e-01	5.231581e-02	2.448359e-02	2.735336e+02	0.000000e+00
4.531250e+04	7.200000e+03	7.500000e+01	1.117268e+03	2.610811e-02	3.691016e-01	1.516723e-01	3.512612e-03	1.407702e+00	-0.000000e+00	1.407702e+00	0.000000e+00	0.000000e+00	1.243815e-01	5.231597e-02	2.448365e-02	2.735336e+02	0.000000e+00
4.893750e+04	7.200000e+03	7.500000e+01	1.117268e+03	2.610814e-02	3.691013e-01	1.516723e-01	3.514513e-03	1.407705e+00	-0.000000e+00	1.407705e+00	0.000000e+00	0.000000e+00	1.243818e-01	5.231614e-02	2.448370e-02	2.735336e+02	0.000000e+00
5.256250e+04	7.200000e+03	7.500000e+01	1.117268e+03	2.610817e-02	3.691009e-01	1.516723e-01	3.516499e-03	1.407708e+00	-0.000000e+00	1.407708e+00	0.000000e+00	0.000000e+00	1.243821e-01	5.231631e-02	2.448376e-02	2.735336e+02	0.000000e+00
5.618750e+04	7.200000e+03	7.500000e+01	1.117268e+03	2.610821e-02	3.691006e-01	1.516723e-01	3.518558e-03	1.407711e+00	-0.000000e+00	1.407711e+00	0.000000e+00	0.000000e+00	1.243824e-01	5.231649e-02	2.448382e-02	2.735337e+02	0.000000e+00
5.981250e+04	7.200000e+03	7.500000e+01	1.117267e+03	2.610824e-02	3.691002e-01	1.516723e-01	3.520678e-03	1.407714e+00	-0.000000e+00	1.407714e+00	0.000000e+00	0.000000e+00	1.243827e-01	5.231668e-02	2.448388e-02	2.735337e+02	0.000000e+00
6.343750e+04	7.200000e+03	7.500000e+01	1.117267e+03	2.610828e-02	3.690998e-01	1.516723e-01	3.522845e-03	1.407717e+00	-0.000000e+00	1.407717e+00	0.000000e+00	0.000000e+00	1.243830e-01	5.231687e-02	2.448394e-02	2.735337e+02	0.000000e+00
6.706250e+04	7.200000e+03	7.500000e+01	1.117267e+03	2.610831e-02	3.690994e-01	1.516723e-01	3.525047e-03	1.407720e+00	-0.000000e+00	1.407720e+00	0.000000e+00	0.000000e+00	1.243833e-01	5.231707e-02	2.448401e-02	2.735337e+02	0.000000e+00
7.068750e+04	7.200000e+03	7.500000e+01	1.117267e+03	2.610835e-02	3.690990e-01	1.516723e-01	3.527268e-03	1.407724e+00	-0.000000e+00	1.407724e+00	0.000000e+00	0.000000e+00	1.243836e-01	5.231726e-02	2.448407e-02	2.735337e+02	0.000000e+00
7.431250e+04	7.200000e+03	7.500000e+01	1.117267e+03	2.610839e-02	3.690987e-01	1.516723e-01	3.529496e-03	1.407727e+00	-0.000000e+00	1.407727e+00	0.000000e+00	0.000000e+00	1.243839e-01	5.231746e-02	2.448414e-02	2.735337e+02	0.000000e+00
7.793750e+04	7.200000e+03	7.500000e+01	1.117267e+03	2.610843e-02	3.690983e-01	1.516723e-01	3.531718e-03	1.407730e+00	-0.000000e+00	1.407730e+00	0.000000e+00	0.000000e+00	1.243843e-01	5.231766e-02	2.448420e-02	2.735337e+02	0.000000e+00
8.156250e+04	7.200000e+03	7.500000e+01	1.117266e+03	2.610846e-02	3.690979e-01	1.516723e-01	3.533918e-03	1.407734e+00	-0.000000e+00	1.407734e+00	0.000000e+00	0.000000e+00	1.243846e-01	5.231785e-02	2.448427e-02	2.735337e+02	0.000000e+00
8.518750e+04	7.200000e+03	7.500000e+01	1.117266e+03	2.610850e-02	3.690975e-01	1.516723e-01	3.536084e-03	1.407737e+00	-0.000000e+00	1.407737e+00	0.000000e+00	0.000000e+00	1.243849e-01	5.231804e-02	2.448433e-02	2.735337e+02	0.000000e+00
8.881250e+04	7.200000e+03	7.500000e+01	1.117266e+03	2.610853e-02	3.690971e-01	1.516723e-01	3.538202e-03	1.407740e+00	-0.000000e+00	1.407740e+00	0.000000e+00	0.000000e+00	1.243852e-01	5.231823e-02	2.448439e-02	2.735337e+02	0.000000e+00
9.243750e+04	7.200000e+03	7.500000e+01	1.117266e+03	2.610857e-02	3.690968e-01	1.516723e-01	3.540260e-03	1.407743e+00	-0.000000e+00	1.407743e+00	0.000000e+00	0.000000e+00	1.243855e-01	5.231841e-02	2.448445e-02	2.735337e+02	0.000000e+00
9.606250e+04	7.200000e+03	7.500000e+01	1.117266e+03	2.610860e-02	3.690964e-01	1.516723e-01	3.542244e-03	1.407746e+00	-0.000000e+00	1.407746e+00	0.000000e+00	0.000000e+00	1.243858e-01	5.231859e-02	2.448451e-02	2.735337e+02	0.000000e+00
9.968750e+04	7.200000e+03	7.500000e+01	1.117266e+03	2.610863e-02	3.690961e-01	1.516723e-01	3.544143e-03	1.407749e+00	-0.000000e+00	1.407749e+00	0.000000e+00	0.000000e+00	1.243861e-01	5.231875e-02	2.448457e-02	2.735337e+02	0.000000e+00
1.033125e+05	7.200000e+03	7.500000e+01	1.117265e+03	2.610866e-02	3.690958e-01	1.516723e-01	3.545945e-03	1.407752e+00	-0.000000e+00	1.407752e+00	0.000000e+00	0.000000e+00	1.243863e-01	5.231891e-02	2.448462e-02	2.735337e+02	0.000000e+00
1.069375e+05	7.200000e+03	7.500000e+01	1.117265e+03	2.610869e-02	3.690955e-01	1.516723e-01	3.547640e-03	1.407754e+00	-0.000000e+00	1.407754e+00	0.000000e+00	0.000000e+00	1.243866e-01	5.231905e-02	2.448466e-02	2.735337e+02	0.000000e+00
1.105625e+05	7.200000e+03	7.500000e+01	1.117265e+03	2.610872e-02	3.690952e-01	1.516723e-01	3.549217e-03	1.407756e+00	-0.000000e+00	1.407756e+00	0.000000e+00	0.000000e+00	1.243868e-01	5.231917e-02	2.448470e-02	2.735337e+02	0.000000e+00
1.141875e+05	7.200000e+03	7.500000e+01	1.117265e+03	2.610874e-02	3.690950e-01	1.516723e-01	3.550668e-03	1.407757e+00	-0.000000e+00	1.407757e+00	0.000000e+00	0.000000e+00	1.243869e-01	5.231927e-02	2.448473e-02	2.735337e+02	0.000000e+00
1.178125e+05	7.200000e+03	7.500000e+01	1.117265e+03	2.610876e-02	3.690948e-01	1.516723e-01	3.551987e-03	1.407758e+00	-0.000000e+00	1.407758e+00	0.000000e+00	0.000000e+00	1.243870e-01	5.231932e-02	2.448474e-02	2.735337e+02	0.000000e+00
1.214375e+05	7.200000e+03	7.500000e+01	1.117265e+03	2.610877e-02	3.690946e-01	1.516723e-01	3.553167e-03	1.407757e+00	-0.000000e+00	1.407757e+00	0.000000e+00	0.000000e+00	1.243870e-01	5.231933e-02	2.448473e-02	2.735337e+02	0.000000e+00
1.250625e+05	7.200000e+03	7.500000e+01	1.117265e+03	2.610878e-02	3.690945e-01	1.516723e-01	3.554205e-03	1.407755e+00	-0.000000e+00	1.407755e+00	0.000000e+00	0.000000e+00	1.243869e-01	5.231926e-02	2.448469e-02	2.735336e+02	0.000000e+00
1.286875e+05	7.200000e+03	7.500000e+01	1.117265e+03	2.610878e-02	3.690946e-01	1.516723e-01	3.555097e-03	1.407751e+00	-0.000000e+00	1.407751e+00	0.000000e+00	0.000000e+00	1.243867e-01	5.231909e-02	2.448461e-02	2.735335e+02	0.000000e+00
1.323125e+05	7.200000e+03	7.500000e+01	1.117265e+03	2.610876e-02	3.690947e-01	1.516723e-01	3.555845e-03	1.407744e+00	-0.000000e+00	1.407744e+00	0.000000e+00	0.000000e+00	1.243863e-01	5.231879e-02	2.448447e-02	2.735334e+02	0.000000e+00
1.359375e+05	7.200000e+03	7.500000e+01	1.117265e+03	2.610872e-02	3.690951e-01	1.516723e-01	3.556448e-03	1.407733e+00	-0.000000e+00	1.407733e+00	0.000000e+00	0.000000e+00	1.243856e-01	5.231832e-02	2.448425e-02	2.735332e+02	0.000000e+00
1.395625e+05	7.200000e+03	7.500000e+01	1.117265e+03	2.610866e-02	3.690957e-01	1.516723e-01	3.556906e-03	1.407718e+00	-0.000000e+00	1.407718e+00	0.000000e+00	0.000000e+00	1.243847e-01	5.231768e-02	2.448395e-02	2.735329e+02	0.000000e+00
1.431875e+05	7.200000e+03	7.500000e+01	1.117265e+03	2.610859e-02	3.690963e-01	1.516723e-01	3.557157e-03	1.407703e+00	-0.000000e+00	1.407703e+00	0.000000e+00	0.000000e+00	1.243838e-01	5.231704e-02	2.448366e-02	2.735326e+02	0.000000e+00
1.812500e+03	1.200000e+04	7.500000e+01	1.117268e+03	2.610805e-02	3.691021e-01	1.516723e-01	3.500529e-03	1.407674e+00	-0.000000e+00	1.407674e+00	0.000000e+00	0.000000e+00	1.243799e-01	5.231484e-02	2.448310e-02	2.735331e+02	0.000000e+00
5.437500e+03	1.200000e+04	7.500000e+01	1.117268e+03	2.610811e-02	3.691015e-01	1.516723e-01	3.500623e-03	1.407687e+00	-0.000000e+00	1.407687e+00	0.000000e+00	0.000000e+00	1.243807e-01	5.231541e-02	2.448336e-02	2.735333e+02	0.000000e+00
9.062500e+03	1.200000e+04	7.500000e+01	1.117268e+03	2.610815e-02	3.691011e-01	1.516723e-01	3.500911e-03	1.407697e+00	-0.000000e+00	1.407697e+00	0.000000e+00	0.000000e+00	1.243813e-01	5.231586e-02	2.448355e-02	2.735335e+02	0.000000e+00
1.268750e+04	1.200000e+04	7.500000e+01	1.117268e+03	2.610818e-02	3.691008e-01	1.516723e-01	3.501396e-03	1.407704e+00	-0.000000e+00	1.407704e+00	0.000000e+00	0.000000e+00	1.243818e-01	5.231618e-02	2.448369e-02	2.735336e+02	0.000000e+00
1.631250e+04	1.200000e+04	7.500000e+01	1.117268e+03	2.610821e-02	3.691005e-01	1.516723e-01	3.502068e-03	1.407709e+00	-0.000000e+00	1.407709e+00	0.000000e+00	0.000000e+00	1.243822e-01	5.231643e-02	2.448380e-02	2.735337e+02	0.000000e+00
1.993750e+04	1.200000e+04	7.500000e+01	1.117268e+03	2.610823e-02	3.691003e-01	1.516723e-01	3.502919e-03	1.407714e+00	-0.000000e+00	1.407714e+00	0.000000e+00	0.000000e+00	1.243825e-01	5.231663e-02	2.448388e-02	2.735337e+02	0.000000e+00
2.356250e+04	1.200000e+04	7.500000e+01	1.117267e+03	2.610825e-02	3.691001e-01	1.516723e-01	3.503940e-03	1.407717e+00	-0.000000e+00	1.407717e+00	0.000000e+00	0.000000e+00	1.243828e-01	5.231680e-02	2.448394e-02	2.735337e+02	0.000000e+00
2.718750e+04	1.200000e+04	7.500000e+01	1.117267e+03	2.610827e-02	3.690999e-01	1.516723e-01	3.505122e-03	1.407720e+00	-0.000000e+00	1.407720e+00	0.000000e+00	0.000000e+00	1.243830e-01	5.231695e-02	2.448399e-02	2.735337e+02	0.000000e+00
3.081250e+04	1.200000e+04	7.500000e+01	1.117267e+03	2.610830e-02	3.690996e-01	1.516723e-01	3.506456e-03	1.407722e+00	-0.000000e+00	1.407722e+00	0.000000e+00	0.000000e+00	1.243833e-01	5.231709e-02	2.448405e-02	2.735338e+02	0.000000e+00
3.443750e+04	1.200000e+04	7.500000e+01	1.117267e+03	2.610832e-02	3.690994e-01	1.516723e-01	3.507932e-03	1.407725e+00	-0.000000e+00	1.407725e+00	0.000000e+00	0.000000e+00	1.243835e-01	5.231723e-02	2.448409e-02	2.735338e+02	0.000000e+00
3.806250e+04	1.200000e+04	7.500000e+01	1.117267e+03	2.610835e-02	3.690991e-01	1.516723e-01	3.509541e-03	1.407727e+00	-0.000000e+00	1.407727e+00	0.000000e+00	0.000000e+00	1.243838e-01	5.231738e-02	2.448414e-02	2.735338e+02	0.000000e+00
4.168750e+04	1.200000e+04	7.500000e+01	1.117267e+03	2.610838e-02	3.690988e-01	1.516723e-01	3.511272e-03	1.407730e+00	-0.000000e+00	1.407730e+00	0.000000e+00	0.000000e+00	1.243840e-01	5.231754e-02	2.448420e-02	2.735338e+02	0.000000e+00
4.531250e+04	1.200000e+04	7.500000e+01	1.117267e+03	2.610841e-02	3.690985e-01	1.516723e-01	3.513114e-03	1.407733e+00	-0.000000e+00	1.407733e+00	0.000000e+00	0.000000e+00	1.243843e-01	5.231770e-02	2.448425e-02	2.735338e+02	0.000000e+00
4.893750e+04	1.200000e+04	7.500000e+01	1.117267e+03	2.610844e-02	3.690981e-01	1.516723e-01	3.515056e-03	1.407736e+00	-0.000000e+00	1.407736e+00	0.000000e+00	0.000000e+00	1.243846e-01	5.231787e-02	2.448431e-02	2.735338e+02	0.000000e+00
5.256250e+04	1.200000e+04	7.500000e+01	1.117266e+03	2.610847e-02	3.690978e-01	1.516723e-01	3.517085e-03	1.407739e+00	-0.000000e+00	1.407739e+00	0.000000e+00	0.000000e+00	1.243849e-01	5.231805e-02	2.448437e-02	2.735338e+02	0.000000e+00
5.618750e+04	1.200000e+04	7.500000e+01	1.117266e+03	2.610851e-02	3.690974e-01	1.516723e-01	3.519189e-03	1.407742e+00	-0.000000e+00	1.407742e+00	0.000000e+00	0.000000e+00	1.243852e-01	5.231823e-02	2.448443e-02	2.735338e+02	0.000000e+00
5.981250e+04	1.200000e+04	7.500000e+01	1.117266e+03	2.610854e-02	3.690970e-01	1.516723e-01	3.521354e-03	1.407745e+00	-0.000000e+00	1.407745e+00	0.000000e+00	0.000000e+00	1.243855e-01	5.231842e-02	2.448449e-02	2.735338e+02	0.000000e+00
6.343750e+04	1.200000e+04	7.500000e+01	1.117266e+03	2.610858e-02	3.690967e-01	1.516723e-01	3.523568e-03	1.407748e+00	-0.000000e+00	1.407748e+00	0.000000e+00	0.000000e+00	1.243858e-01	5.231862e-02	2.448455e-02	2.735338e+02	0.000000e+00
6.706250e+04	1.200000e+04	7.500000e+01	1.117266e+03	2.610862e-02	3.690963e-01	1.516723e-01	3.525817e-03	1.407752e+00	-0.000000e+00	1.407752e+00	0.000000e+00	0.000000e+00	1.243861e-01	5.231882e-02	2.448462e-02	2.735338e+02	0.000000e+00
7.068750e+04	1.200000e+04	7.500000e+01	1.117266e+03	2.610866e-02	3.690959e-01	1.516723e-01	3.528086e-03	1.407755e+00	-0.000000e+00	1.407755e+00	0.000000e+00	0.000000e+00	1.243865e-01	5.231902e-02	2.448469e-02	2.735338e+02	0.000000e+00
7.431250e+04	1.200000e+04	7.500000e+01	1.117265e+03	2.610869e-02	3.690955e-01	1.516723e-01	3.530362e-03	1.407759e+00	-0.000000e+00	1.407759e+00	0.000000e+00	0.000000e+00	1.243868e-01	5.231922e-02	2.448475e-02	2.735338e+02	0.000000e+00
7.793750e+04	1.200000e+04	7.500000e+01	1.117265e+03	2.610873e-02	3.690951e-01	1.516723e-01	3.532631e-03	1.407762e+00	-0.000000e+00	1.407762e+00	0.000000e+00	0.000000e+00	1.243871e-01	5.231942e-02	2.448482e-02	2.735339e+02	0.000000e+00
8.156250e+04	1.200000e+04	7.500000e+01	1.117265e+03	2.610877e-02	3.690947e-01	1.516723e-01	3.534879e-03	1.407765e+00	-0.000000e+00	1.407765e+00	0.000000e+00	0.000000e+00	1.243874e-01	5.231962e-02	2.448488e-02	2.735339e+02	0.000000e+00
8.518750e+04	1.200000e+04	7.500000e+01	1.117265e+03	2.610881e-02	3.690943e-01	1.516723e-01	3.537092e-03	1.407769e+00	-0.000000e+00	1.407769e+00	0.000000e+00	0.000000e+00	1.243878e-01	5.231981e-02	2.448495e-02	2.735339e+02	0.000000e+00
8.881250e+04	1.200000e+04	7.500000e+01	1.117265e+03	2.610884e-02	3.690939e-01	1.516723e-01	3.539255e-03	1.407772e+00	-0.000000e+00	1.407772e+00	0.000000e+00	0.000000e+00	1.243881e-01	5.232001e-02	2.448501e-02	2.735339e+02	0.000000e+00
9.243750e+04	1.200000e+04	7.500000e+01	1.117265e+03	2.610888e-02	3.690935e-01	1.516723e-01	3.541357e-03	1.407775e+00	-0.000000e+00	1.407775e+00	0.000000e+00	0.000000e+00	1.243884e-01	5.232019e-02	2.448507e-02	2.735339e+02	0.000000e+00
9.606250e+04	1.200000e+04	7.500000e+01	1.117264e+03	2.610891e-02	3.690932e-01	1.516723e-01	3.543384e-03	1.407778e+00	-0.000000e+00	1.407778e+00	0.000000e+00	0.000000e+00	1.243887e-01	5.232037e-02	2.448513e-02	2.735339e+02	0.000000e+00
9.968750e+04	1.200000e+04	7.500000e+01	1.117264e+03	2.610894e-02	3.690928e-01	1.516723e-01	3.545324e-03	1.407781e+00	-0.000000e+00	1.407781e+00	0.000000e+00	0.000000e+00	1.243890e-01	5.232054e-02	2.448519e-02	2.735339e+02	0.000000e+00
1.033125e+05	1.200000e+04	7.500000e+01	1.117264e+03	2.610897e-02	3.690925e-01	1.516723e-01	3.547164e-03	1.407784e+00	-0.000000e+00	1.407784e+00	0.000000e+00	0.000000e+00	1.243892e-01	5.232070e-02	2.448524e-02	2.735339e+02	0.000000e+00
1.069375e+05	1.200000e+04	7.500000e+01	1.117264e+03	2.610900e-02	3.690922e-01	1.516723e-01	3.548895e-03	1.407786e+00	-0.000000e+00	1.407786e+00	0.000000e+00	0.000000e+00	1.243895e-01	5.232085e-02	2.448529e-02	2.735339e+02	0.000000e+00
1.105625e+05	1.200000e+04	7.500000e+01	1.117264e+03	2.610903e-02	3.690919e-01	1.516723e-01	3.550506e-03	1.407788e+00	-0.000000e+00	1.407788e+00	0.000000e+00	0.000000e+00	1.243897e-01	5.232097e-02	2.448533e-02	2.735339e+02	0.000000e+00
1.141875e+05	1.200000e+04	7.500000e+01	1.117264e+03	2.610905e-02	3.690917e-01	1.516723e-01	3.551988e-03	1.407789e+00	-0.000000e+00	1.407789e+00	0.000000e+00	0.000000e+00	1.243898e-01	5.232107e-02	2.448536e-02	2.735339e+02	0.000000e+00
1.178125e+05	1.200000e+04	7.500000e+01	1.117264e+03	2.610907e-02	3.690915e-01	1.516723e-01	3.553335e-03	1.407790e+00	-0.000000e+00	1.407790e+00	0.000000e+00	0.000000e+00	1.243899e-01	5.232113e-02	2.448537e-02	2.735339e+02	0.000000e+00
1.214375e+05	1.200000e+04	7.500000e+01	1.117264e+03	2.610909e-02	3.690913e-01	1.516723e-01	3.554540e-03	1.407790e+00	-0.000000e+00	1.407790e+00	0.000000e+00	0.000000e+00	1.243900e-01	5.232113e-02	2.448536e-02	2.735338e+02	0.000000e+00
1.250625e+05	1.200000e+04	7.500000e+01	1.117263e+03	2.610909e-02	3.690912e-01	1.516723e-01	3.555599e-03	1.407788e+00	-0.000000e+00	1.407788e+00	0.000000e+00	0.000000e+00	1.243899e-01	5.232107e-02	2.448532e-02	2.735338e+02	0.000000e+00
1.286875e+05	1.200000e+04	7.500000e+01	1.117263e+03	2.610909e-02	3.690913e-01	1.516723e-01	3.556510e-03	1.407783e+00	-0.000000e+00	1.407783e+00	0.000000e+00	0.000000e+00	1.243896e-01	5.232090e-02	2.448524e-02	2.735337e+02	0.000000e+00
1.323125e+05	1.200000e+04	7.500000e+01	1.117263e+03	2.610907e-02	3.690914e-01	1.516723e-01	3.557271e-03	1.407776e+00	-0.000000e+00	1.407776e+00	0.000000e+00	0.000000e+00	1.243892e-01	5.232061e-02	2.448510e-02	2.735336e+02	0.000000e+00
1.359375e+05	1.200000e+04	7.500000e+01	1.117263e+03	2.610903e-02	3.690918e-01	1.516723e-01	3.557886e-03	1.407765e+00	-0.000000e+00	1.407765e+00	0.000000e+00	0.000000e+00	1.243886e-01	5.232014e-02	2.448488e-02	2.735334e+02	0.000000e+00
1.395625e+05	1.200000e+04	7.500000e+01	1.117263e+03	2.610897e-02	3.690924e-01	1.516723e-01	3.558351e-03	1.407750e+00	-0.000000e+00	1.407750e+00	0.000000e+00	0.000000e+00	1.243877e-01	5.231950e-02	2.448459e-02	2.735331e+02	0.000000e+00
1.431875e+05	1.200000e+04	7.500000e+01	1.117263e+03	2.610891e-02	3.690930e-01	1.516723e-01	3.558607e-03	1.407735e+00	-0.000000e+00	1.407735e+00	0.000000e+00	0.000000e+00	1.243868e-01	5.231886e-02	2.448429e-02	2.735328e+02	0.000000e+00
1.812500e+03	1.680000e+04	7.500000e+01	1.117266e+03	2.610846e-02	3.690978e-01	1.516723e-01	3.500923e-03	1.407712e+00	-0.000000e+00	1.407712e+00	0.000000e+00	0.000000e+00	1.243836e-01	5.231706e-02	2.448384e-02	2.735332e+02	0.000000e+00
5.437500e+03	1.680000e+04	7.500000e+01	1.117266e+03	2.610852e-02	3.690972e-01	1.516723e-01	3.501023e-03	1.407725e+00	-0.000000e+00	1.407725e+00	0.000000e+00	0.000000e+00	1.243844e-01	5.231763e-02	2.448410e-02	2.735334e+02	0.000000e+00
9.062500e+03	1.680000e+04	7.500000e+01	1.117266e+03	2.610856e-02	3.690968e-01	1.516723e-01	3.501323e-03	1.407735e+00	-0.000000e+00	1.407735e+00	0.000000e+00	0.000000e+00	1.243850e-01	5.231808e-02	2.448430e-02	2.735336e+02	0.000000e+00
1.268750e+04	1.680000e+04	7.500000e+01	1.117266e+03	2.610860e-02	3.690965e-01	1.516723e-01	3.501825e-03	1.407742e+00	-0.000000e+00	1.407742e+00	0.000000e+00	0.000000e+00	1.243855e-01	5.231840e-02	2.448444e-02	2.735337e+02	0.000000e+00
1.631250e+04	1.680000e+04	7.500000e+01	1.117266e+03	2.610862e-02	3.690962e-01	1.516723e-01	3.502519e-03	1.407748e+00	-0.000000e+00	1.407748e+00	0.000000e+00	0.000000e+00	1.243859e-01	5.231865e-02	2.448454e-02	2.735338e+02	0.000000e+00
1.993750e+04	1.680000e+04	7.500000e+01	1.117266e+03	2.610864e-02	3.690960e-01	1.516723e-01	3.503398e-03	1.407752e+00	-0.000000e+00	1.407752e+00	0.000000e+00	0.000000e+00	1.243862e-01	5.231885e-02	2.448462e-02	2.735338e+02	0.000000e+00