TITLE = "z-anode/separator fields" 
FILETYPE = FULL
VARIABLES = "x" "y" "z" "Cf" "Cs" "Us" "Ps" "Pf" "J1""J2""J" "Ph" "Pi" "Qk" "Qo" "Qr" "Tcell""nLi" 
ZONE
I=40,     J=40,     K=1
ZONETYPE=Ordered, DATAPACKING=Point
1.812500e+03	2.400000e+03	7.500000e+01	7.141138e+02	7.851091e-01	9.039369e-02	-1.334679e-01	-1.025161e-02	2.955547e+00	3.464017e-01	3.301948e+00	-2.625200e-02	-1.322006e+01	2.819085e-01	8.515197e-02	-3.496200e-02	2.754559e+02	3.577703e+08
5.437500e+03	2.400000e+03	7.500000e+01	7.141358e+02	7.851391e-01	9.039351e-02	-1.334679e-01	-1.025293e-02	2.955641e+00	3.463952e-01	3.302036e+00	-2.625178e-02	-1.321943e+01	2.819138e-01	8.515565e-02	-3.496492e-02	2.754570e+02	3.577615e+08
9.062500e+03	2.400000e+03	7.500000e+01	7.141551e+02	7.851654e-01	9.039335e-02	-1.334679e-01	-1.025394e-02	2.955722e+00	3.463894e-01	3.302111e+00	-2.625162e-02	-1.321896e+01	2.819183e-01	8.515886e-02	-3.496748e-02	2.754580e+02	3.577537e+08
1.268750e+04	2.400000e+03	7.500000e+01	7.141717e+02	7.851884e-01	9.039322e-02	-1.334679e-01	-1.025461e-02	2.955793e+00	3.463846e-01	3.302177e+00	-2.625155e-02	-1.321867e+01	2.819223e-01	8.516164e-02	-3.496971e-02	2.754588e+02	3.577472e+08
1.631250e+04	2.400000e+03	7.500000e+01	7.141861e+02	7.852088e-01	9.039310e-02	-1.334679e-01	-1.025498e-02	2.955855e+00	3.463806e-01	3.302235e+00	-2.625155e-02	-1.321854e+01	2.819258e-01	8.516407e-02	-3.497169e-02	2.754596e+02	3.577418e+08
1.993750e+04	2.400000e+03	7.500000e+01	7.141986e+02	7.852270e-01	9.039299e-02	-1.334679e-01	-1.025507e-02	2.955909e+00	3.463775e-01	3.302286e+00	-2.625161e-02	-1.321856e+01	2.819290e-01	8.516620e-02	-3.497344e-02	2.754602e+02	3.577374e+08
2.356250e+04	2.400000e+03	7.500000e+01	7.142094e+02	7.852431e-01	9.039290e-02	-1.334679e-01	-1.025490e-02	2.955957e+00	3.463751e-01	3.302332e+00	-2.625174e-02	-1.321871e+01	2.819319e-01	8.516807e-02	-3.497500e-02	2.754608e+02	3.577338e+08
2.718750e+04	2.400000e+03	7.500000e+01	7.142189e+02	7.852577e-01	9.039281e-02	-1.334679e-01	-1.025449e-02	2.955999e+00	3.463732e-01	3.302373e+00	-2.625192e-02	-1.321898e+01	2.819346e-01	8.516972e-02	-3.497639e-02	2.754613e+02	3.577309e+08
3.081250e+04	2.400000e+03	7.500000e+01	7.142271e+02	7.852708e-01	9.039274e-02	-1.334679e-01	-1.025387e-02	2.956037e+00	3.463719e-01	3.302409e+00	-2.625216e-02	-1.321937e+01	2.819370e-01	8.517117e-02	-3.497765e-02	2.754617e+02	3.577288e+08
3.443750e+04	2.400000e+03	7.500000e+01	7.142341e+02	7.852826e-01	9.039267e-02	-1.334679e-01	-1.025304e-02	2.956071e+00	3.463712e-01	3.302442e+00	-2.625245e-02	-1.321987e+01	2.819393e-01	8.517246e-02	-3.497879e-02	2.754621e+02	3.577273e+08
3.806250e+04	2.400000e+03	7.500000e+01	7.142403e+02	7.852934e-01	9.039262e-02	-1.334679e-01	-1.025204e-02	2.956101e+00	3.463708e-01	3.302472e+00	-2.625279e-02	-1.322047e+01	2.819415e-01	8.517360e-02	-3.497982e-02	2.754624e+02	3.577263e+08
4.168750e+04	2.400000e+03	7.500000e+01	7.142455e+02	7.853033e-01	9.039256e-02	-1.334679e-01	-1.025087e-02	2.956129e+00	3.463708e-01	3.302500e+00	-2.625316e-02	-1.322115e+01	2.819435e-01	8.517462e-02	-3.498075e-02	2.754627e+02	3.577258e+08
4.531250e+04	2.400000e+03	7.500000e+01	7.142501e+02	7.853123e-01	9.039252e-02	-1.334679e-01	-1.024955e-02	2.956153e+00	3.463712e-01	3.302525e+00	-2.625358e-02	-1.322192e+01	2.819454e-01	8.517552e-02	-3.498161e-02	2.754630e+02	3.577257e+08
4.893750e+04	2.400000e+03	7.500000e+01	7.142539e+02	7.853205e-01	9.039247e-02	-1.334679e-01	-1.024809e-02	2.956176e+00	3.463720e-01	3.302548e+00	-2.625403e-02	-1.322276e+01	2.819472e-01	8.517633e-02	-3.498240e-02	2.754632e+02	3.577261e+08
5.256250e+04	2.400000e+03	7.500000e+01	7.142571e+02	7.853281e-01	9.039244e-02	-1.334679e-01	-1.024652e-02	2.956196e+00	3.463730e-01	3.302569e+00	-2.625451e-02	-1.322366e+01	2.819489e-01	8.517704e-02	-3.498312e-02	2.754634e+02	3.577268e+08
5.618750e+04	2.400000e+03	7.500000e+01	7.142598e+02	7.853351e-01	9.039240e-02	-1.334679e-01	-1.024484e-02	2.956214e+00	3.463742e-01	3.302588e+00	-2.625502e-02	-1.322462e+01	2.819506e-01	8.517768e-02	-3.498378e-02	2.754636e+02	3.577278e+08
5.981250e+04	2.400000e+03	7.500000e+01	7.142619e+02	7.853415e-01	9.039237e-02	-1.334679e-01	-1.024307e-02	2.956230e+00	3.463757e-01	3.302606e+00	-2.625554e-02	-1.322562e+01	2.819522e-01	8.517824e-02	-3.498438e-02	2.754637e+02	3.577291e+08
6.343750e+04	2.400000e+03	7.500000e+01	7.142636e+02	7.853473e-01	9.039235e-02	-1.334679e-01	-1.024123e-02	2.956245e+00	3.463774e-01	3.302622e+00	-2.625609e-02	-1.322667e+01	2.819537e-01	8.517872e-02	-3.498493e-02	2.754639e+02	3.577307e+08
6.706250e+04	2.400000e+03	7.500000e+01	7.142648e+02	7.853525e-01	9.039232e-02	-1.334679e-01	-1.023933e-02	2.956258e+00	3.463793e-01	3.302637e+00	-2.625665e-02	-1.322775e+01	2.819551e-01	8.517913e-02	-3.498543e-02	2.754640e+02	3.577325e+08
7.068750e+04	2.400000e+03	7.500000e+01	7.142655e+02	7.853571e-01	9.039230e-02	-1.334679e-01	-1.023737e-02	2.956269e+00	3.463813e-01	3.302650e+00	-2.625723e-02	-1.322885e+01	2.819565e-01	8.517948e-02	-3.498587e-02	2.754640e+02	3.577346e+08
7.431250e+04	2.400000e+03	7.500000e+01	7.142658e+02	7.853612e-01	9.039229e-02	-1.334679e-01	-1.023538e-02	2.956278e+00	3.463835e-01	3.302662e+00	-2.625781e-02	-1.322998e+01	2.819578e-01	8.517975e-02	-3.498625e-02	2.754641e+02	3.577368e+08
7.793750e+04	2.400000e+03	7.500000e+01	7.142656e+02	7.853646e-01	9.039228e-02	-1.334679e-01	-1.023336e-02	2.956286e+00	3.463859e-01	3.302672e+00	-2.625840e-02	-1.323111e+01	2.819589e-01	8.517994e-02	-3.498657e-02	2.754641e+02	3.577393e+08
8.156250e+04	2.400000e+03	7.500000e+01	7.142649e+02	7.853673e-01	9.039227e-02	-1.334679e-01	-1.023133e-02	2.956291e+00	3.463884e-01	3.302680e+00	-2.625898e-02	-1.323226e+01	2.819600e-01	8.518006e-02	-3.498683e-02	2.754642e+02	3.577420e+08
8.518750e+04	2.400000e+03	7.500000e+01	7.142637e+02	7.853693e-01	9.039227e-02	-1.334679e-01	-1.022929e-02	2.956295e+00	3.463910e-01	3.302686e+00	-2.625957e-02	-1.323340e+01	2.819609e-01	8.518010e-02	-3.498701e-02	2.754641e+02	3.577448e+08
8.881250e+04	2.400000e+03	7.500000e+01	7.142619e+02	7.853705e-01	9.039227e-02	-1.334679e-01	-1.022726e-02	2.956296e+00	3.463937e-01	3.302690e+00	-2.626014e-02	-1.323453e+01	2.819617e-01	8.518004e-02	-3.498712e-02	2.754641e+02	3.577479e+08
9.243750e+04	2.400000e+03	7.500000e+01	7.142596e+02	7.853708e-01	9.039227e-02	-1.334679e-01	-1.022525e-02	2.956294e+00	3.463966e-01	3.302691e+00	-2.626071e-02	-1.323566e+01	2.819624e-01	8.517988e-02	-3.498715e-02	2.754640e+02	3.577511e+08
9.606250e+04	2.400000e+03	7.500000e+01	7.142566e+02	7.853701e-01	9.039229e-02	-1.334679e-01	-1.022325e-02	2.956290e+00	3.463996e-01	3.302690e+00	-2.626127e-02	-1.323677e+01	2.819628e-01	8.517961e-02	-3.498707e-02	2.754639e+02	3.577546e+08
9.968750e+04	2.400000e+03	7.500000e+01	7.142528e+02	7.853683e-01	9.039230e-02	-1.334679e-01	-1.022129e-02	2.956282e+00	3.464028e-01	3.302685e+00	-2.626182e-02	-1.323786e+01	2.819631e-01	8.517921e-02	-3.498690e-02	2.754638e+02	3.577582e+08
1.033125e+05	2.400000e+03	7.500000e+01	7.142483e+02	7.853652e-01	9.039233e-02	-1.334679e-01	-1.021935e-02	2.956271e+00	3.464061e-01	3.302677e+00	-2.626235e-02	-1.323893e+01	2.819631e-01	8.517867e-02	-3.498660e-02	2.754636e+02	3.577622e+08
1.069375e+05	2.400000e+03	7.500000e+01	7.142428e+02	7.853608e-01	9.039236e-02	-1.334679e-01	-1.021746e-02	2.956256e+00	3.464096e-01	3.302665e+00	-2.626286e-02	-1.323997e+01	2.819629e-01	8.517797e-02	-3.498616e-02	2.754633e+02	3.577663e+08
1.105625e+05	2.400000e+03	7.500000e+01	7.142364e+02	7.853547e-01	9.039241e-02	-1.334679e-01	-1.021559e-02	2.956236e+00	3.464133e-01	3.302649e+00	-2.626336e-02	-1.324099e+01	2.819624e-01	8.517710e-02	-3.498558e-02	2.754631e+02	3.577708e+08
1.141875e+05	2.400000e+03	7.500000e+01	7.142287e+02	7.853469e-01	9.039246e-02	-1.334679e-01	-1.021377e-02	2.956210e+00	3.464172e-01	3.302628e+00	-2.626384e-02	-1.324198e+01	2.819616e-01	8.517601e-02	-3.498482e-02	2.754627e+02	3.577757e+08
1.178125e+05	2.400000e+03	7.500000e+01	7.142197e+02	7.853371e-01	9.039252e-02	-1.334679e-01	-1.021197e-02	2.956179e+00	3.464215e-01	3.302600e+00	-2.626430e-02	-1.324295e+01	2.819603e-01	8.517470e-02	-3.498387e-02	2.754623e+02	3.577810e+08
1.214375e+05	2.400000e+03	7.500000e+01	7.142092e+02	7.853250e-01	9.039260e-02	-1.334679e-01	-1.021021e-02	2.956141e+00	3.464260e-01	3.302567e+00	-2.626474e-02	-1.324389e+01	2.819587e-01	8.517312e-02	-3.498270e-02	2.754618e+02	3.577867e+08
1.250625e+05	2.400000e+03	7.500000e+01	7.141970e+02	7.853103e-01	9.039269e-02	-1.334679e-01	-1.020846e-02	2.956094e+00	3.464310e-01	3.302525e+00	-2.626516e-02	-1.324482e+01	2.819566e-01	8.517123e-02	-3.498127e-02	2.754612e+02	3.577931e+08
1.286875e+05	2.400000e+03	7.500000e+01	7.141827e+02	7.852927e-01	9.039280e-02	-1.334679e-01	-1.020671e-02	2.956039e+00	3.464364e-01	3.302476e+00	-2.626556e-02	-1.324573e+01	2.819539e-01	8.516899e-02	-3.497956e-02	2.754605e+02	3.578001e+08
1.323125e+05	2.400000e+03	7.500000e+01	7.141662e+02	7.852718e-01	9.039293e-02	-1.334679e-01	-1.020496e-02	2.955974e+00	3.464425e-01	3.302416e+00	-2.626595e-02	-1.324663e+01	2.819506e-01	8.516636e-02	-3.497753e-02	2.754597e+02	3.578078e+08
1.359375e+05	2.400000e+03	7.500000e+01	7.141470e+02	7.852469e-01	9.039308e-02	-1.334679e-01	-1.020317e-02	2.955896e+00	3.464492e-01	3.302345e+00	-2.626633e-02	-1.324754e+01	2.819466e-01	8.516324e-02	-3.497511e-02	2.754587e+02	3.578166e+08
1.395625e+05	2.400000e+03	7.500000e+01	7.141251e+02	7.852183e-01	9.039326e-02	-1.334679e-01	-1.020135e-02	2.955806e+00	3.464566e-01	3.302262e+00	-2.626670e-02	-1.324845e+01	2.819418e-01	8.515967e-02	-3.497231e-02	2.754576e+02	3.578262e+08
1.431875e+05	2.400000e+03	7.500000e+01	7.141017e+02	7.851869e-01	9.039345e-02	-1.334679e-01	-1.019965e-02	2.955707e+00	3.464636e-01	3.302170e+00	-2.626703e-02	-1.324929e+01	2.819364e-01	8.515577e-02	-3.496924e-02	2.754564e+02	3.578357e+08
1.812500e+03	7.200000e+03	7.500000e+01	7.141380e+02	7.851552e-01	9.039345e-02	-1.334679e-01	-1.025383e-02	2.955680e+00	3.464026e-01	3.302082e+00	-2.625160e-02	-1.321889e+01	2.819186e-01	8.515684e-02	-3.496645e-02	2.754573e+02	3.577691e+08
5.437500e+03	7.200000e+03	7.500000e+01	7.141602e+02	7.851854e-01	9.039326e-02	-1.334679e-01	-1.025516e-02	2.955775e+00	3.463961e-01	3.302171e+00	-2.625137e-02	-1.321826e+01	2.819239e-01	8.516056e-02	-3.496941e-02	2.754584e+02	3.577603e+08
9.062500e+03	7.200000e+03	7.500000e+01	7.141794e+02	7.852117e-01	9.039311e-02	-1.334679e-01	-1.025617e-02	2.955856e+00	3.463902e-01	3.302246e+00	-2.625122e-02	-1.321779e+01	2.819284e-01	8.516377e-02	-3.497196e-02	2.754594e+02	3.577525e+08
1.268750e+04	7.200000e+03	7.500000e+01	7.141960e+02	7.852348e-01	9.039297e-02	-1.334679e-01	-1.025683e-02	2.955927e+00	3.463855e-01	3.302312e+00	-2.625115e-02	-1.321750e+01	2.819324e-01	8.516655e-02	-3.497420e-02	2.754602e+02	3.577460e+08
1.631250e+04	7.200000e+03	7.500000e+01	7.142104e+02	7.852552e-01	9.039285e-02	-1.334679e-01	-1.025719e-02	2.955988e+00	3.463815e-01	3.302370e+00	-2.625115e-02	-1.321738e+01	2.819360e-01	8.516897e-02	-3.497617e-02	2.754610e+02	3.577406e+08
1.993750e+04	7.200000e+03	7.500000e+01	7.142229e+02	7.852733e-01	9.039274e-02	-1.334679e-01	-1.025727e-02	2.956043e+00	3.463784e-01	3.302421e+00	-2.625122e-02	-1.321740e+01	2.819392e-01	8.517110e-02	-3.497792e-02	2.754616e+02	3.577361e+08
2.356250e+04	7.200000e+03	7.500000e+01	7.142338e+02	7.852896e-01	9.039265e-02	-1.334679e-01	-1.025709e-02	2.956091e+00	3.463760e-01	3.302467e+00	-2.625134e-02	-1.321755e+01	2.819421e-01	8.517298e-02	-3.497949e-02	2.754622e+02	3.577325e+08
2.718750e+04	7.200000e+03	7.500000e+01	7.142432e+02	7.853041e-01	9.039257e-02	-1.334679e-01	-1.025668e-02	2.956134e+00	3.463741e-01	3.302508e+00	-2.625153e-02	-1.321783e+01	2.819448e-01	8.517462e-02	-3.498089e-02	2.754627e+02	3.577297e+08
3.081250e+04	7.200000e+03	7.500000e+01	7.142514e+02	7.853173e-01	9.039249e-02	-1.334679e-01	-1.025604e-02	2.956172e+00	3.463729e-01	3.302544e+00	-2.625178e-02	-1.321823e+01	2.819472e-01	8.517608e-02	-3.498215e-02	2.754631e+02	3.577276e+08
3.443750e+04	7.200000e+03	7.500000e+01	7.142585e+02	7.853292e-01	9.039243e-02	-1.334679e-01	-1.025520e-02	2.956205e+00	3.463721e-01	3.302578e+00	-2.625207e-02	-1.321874e+01	2.819495e-01	8.517737e-02	-3.498329e-02	2.754635e+02	3.577261e+08
3.806250e+04	7.200000e+03	7.500000e+01	7.142646e+02	7.853400e-01	9.039237e-02	-1.334679e-01	-1.025418e-02	2.956236e+00	3.463718e-01	3.302608e+00	-2.625241e-02	-1.321934e+01	2.819517e-01	8.517852e-02	-3.498432e-02	2.754638e+02	3.577251e+08
4.168750e+04	7.200000e+03	7.500000e+01	7.142699e+02	7.853499e-01	9.039232e-02	-1.334679e-01	-1.025300e-02	2.956263e+00	3.463718e-01	3.302635e+00	-2.625279e-02	-1.322004e+01	2.819537e-01	8.517954e-02	-3.498526e-02	2.754641e+02	3.577246e+08
4.531250e+04	7.200000e+03	7.500000e+01	7.142744e+02	7.853589e-01	9.039227e-02	-1.334679e-01	-1.025166e-02	2.956288e+00	3.463722e-01	3.302660e+00	-2.625321e-02	-1.322081e+01	2.819556e-01	8.518044e-02	-3.498613e-02	2.754644e+02	3.577246e+08
4.893750e+04	7.200000e+03	7.500000e+01	7.142783e+02	7.853672e-01	9.039223e-02	-1.334679e-01	-1.025019e-02	2.956310e+00	3.463730e-01	3.302683e+00	-2.625367e-02	-1.322166e+01	2.819574e-01	8.518125e-02	-3.498692e-02	2.754646e+02	3.577249e+08
5.256250e+04	7.200000e+03	7.500000e+01	7.142815e+02	7.853749e-01	9.039219e-02	-1.334679e-01	-1.024859e-02	2.956331e+00	3.463740e-01	3.302705e+00	-2.625415e-02	-1.322257e+01	2.819592e-01	8.518197e-02	-3.498764e-02	2.754648e+02	3.577256e+08
5.618750e+04	7.200000e+03	7.500000e+01	7.142842e+02	7.853819e-01	9.039215e-02	-1.334679e-01	-1.024690e-02	2.956349e+00	3.463753e-01	3.302724e+00	-2.625466e-02	-1.322354e+01	2.819609e-01	8.518261e-02	-3.498831e-02	2.754650e+02	3.577267e+08
5.981250e+04	7.200000e+03	7.500000e+01	7.142864e+02	7.853883e-01	9.039212e-02	-1.334679e-01	-1.024511e-02	2.956365e+00	3.463768e-01	3.302742e+00	-2.625520e-02	-1.322456e+01	2.819625e-01	8.518317e-02	-3.498892e-02	2.754651e+02	3.577280e+08
6.343750e+04	7.200000e+03	7.500000e+01	7.142880e+02	7.853941e-01	9.039210e-02	-1.334679e-01	-1.024325e-02	2.956380e+00	3.463785e-01	3.302758e+00	-2.625575e-02	-1.322562e+01	2.819640e-01	8.518366e-02	-3.498947e-02	2.754653e+02	3.577296e+08
6.706250e+04	7.200000e+03	7.500000e+01	7.142892e+02	7.853994e-01	9.039207e-02	-1.334679e-01	-1.024132e-02	2.956393e+00	3.463804e-01	3.302773e+00	-2.625632e-02	-1.322671e+01	2.819654e-01	8.518408e-02	-3.498997e-02	2.754654e+02	3.577315e+08
7.068750e+04	7.200000e+03	7.500000e+01	7.142900e+02	7.854041e-01	9.039206e-02	-1.334679e-01	-1.023934e-02	2.956404e+00	3.463825e-01	3.302787e+00	-2.625690e-02	-1.322783e+01	2.819668e-01	8.518442e-02	-3.499041e-02	2.754655e+02	3.577336e+08
7.431250e+04	7.200000e+03	7.500000e+01	7.142902e+02	7.854082e-01	9.039204e-02	-1.334679e-01	-1.023733e-02	2.956414e+00	3.463847e-01	3.302798e+00	-2.625749e-02	-1.322896e+01	2.819681e-01	8.518470e-02	-3.499080e-02	2.754655e+02	3.577358e+08
7.793750e+04	7.200000e+03	7.500000e+01	7.142900e+02	7.854117e-01	9.039203e-02	-1.334679e-01	-1.023529e-02	2.956421e+00	3.463871e-01	3.302808e+00	-2.625808e-02	-1.323011e+01	2.819693e-01	8.518490e-02	-3.499113e-02	2.754656e+02	3.577383e+08
8.156250e+04	7.200000e+03	7.500000e+01	7.142894e+02	7.854145e-01	9.039202e-02	-1.334679e-01	-1.023324e-02	2.956427e+00	3.463896e-01	3.302817e+00	-2.625867e-02	-1.323126e+01	2.819703e-01	8.518502e-02	-3.499139e-02	2.754656e+02	3.577410e+08
8.518750e+04	7.200000e+03	7.500000e+01	7.142882e+02	7.854165e-01	9.039202e-02	-1.334679e-01	-1.023118e-02	2.956431e+00	3.463922e-01	3.302823e+00	-2.625926e-02	-1.323242e+01	2.819713e-01	8.518506e-02	-3.499158e-02	2.754656e+02	3.577439e+08
8.881250e+04	7.200000e+03	7.500000e+01	7.142864e+02	7.854177e-01	9.039202e-02	-1.334679e-01	-1.022913e-02	2.956432e+00	3.463950e-01	3.302827e+00	-2.625985e-02	-1.323356e+01	2.819721e-01	8.518500e-02	-3.499169e-02	2.754655e+02	3.577470e+08
9.243750e+04	7.200000e+03	7.500000e+01	7.142841e+02	7.854181e-01	9.039202e-02	-1.334679e-01	-1.022710e-02	2.956430e+00	3.463979e-01	3.302828e+00	-2.626042e-02	-1.323470e+01	2.819728e-01	8.518485e-02	-3.499172e-02	2.754654e+02	3.577502e+08
9.606250e+04	7.200000e+03	7.500000e+01	7.142811e+02	7.854174e-01	9.039203e-02	-1.334679e-01	-1.022508e-02	2.956426e+00	3.464009e-01	3.302827e+00	-2.626099e-02	-1.323582e+01	2.819732e-01	8.518458e-02	-3.499165e-02	2.754653e+02	3.577537e+08
9.968750e+04	7.200000e+03	7.500000e+01	7.142773e+02	7.854156e-01	9.039205e-02	-1.334679e-01	-1.022310e-02	2.956419e+00	3.464041e-01	3.302823e+00	-2.626154e-02	-1.323692e+01	2.819735e-01	8.518418e-02	-3.499148e-02	2.754652e+02	3.577574e+08
1.033125e+05	7.200000e+03	7.500000e+01	7.142728e+02	7.854126e-01	9.039208e-02	-1.334679e-01	-1.022115e-02	2.956407e+00	3.464074e-01	3.302815e+00	-2.626208e-02	-1.323800e+01	2.819736e-01	8.518365e-02	-3.499119e-02	2.754650e+02	3.577613e+08
1.069375e+05	7.200000e+03	7.500000e+01	7.142673e+02	7.854082e-01	9.039211e-02	-1.334679e-01	-1.021923e-02	2.956392e+00	3.464110e-01	3.302803e+00	-2.626259e-02	-1.323905e+01	2.819734e-01	8.518295e-02	-3.499076e-02	2.754648e+02	3.577655e+08
1.105625e+05	7.200000e+03	7.500000e+01	7.142609e+02	7.854022e-01	9.039215e-02	-1.334679e-01	-1.021736e-02	2.956372e+00	3.464147e-01	3.302787e+00	-2.626310e-02	-1.324008e+01	2.819729e-01	8.518208e-02	-3.499017e-02	2.754645e+02	3.577701e+08
1.141875e+05	7.200000e+03	7.500000e+01	7.142532e+02	7.853944e-01	9.039221e-02	-1.334679e-01	-1.021552e-02	2.956347e+00	3.464186e-01	3.302766e+00	-2.626358e-02	-1.324108e+01	2.819720e-01	8.518100e-02	-3.498942e-02	2.754641e+02	3.577749e+08
1.178125e+05	7.200000e+03	7.500000e+01	7.142442e+02	7.853846e-01	9.039227e-02	-1.334679e-01	-1.021371e-02	2.956316e+00	3.464229e-01	3.302738e+00	-2.626404e-02	-1.324205e+01	2.819708e-01	8.517968e-02	-3.498847e-02	2.754637e+02	3.577802e+08
1.214375e+05	7.200000e+03	7.500000e+01	7.142337e+02	7.853725e-01	9.039235e-02	-1.334679e-01	-1.021193e-02	2.956277e+00	3.464275e-01	3.302705e+00	-2.626448e-02	-1.324300e+01	2.819692e-01	8.517810e-02	-3.498730e-02	2.754632e+02	3.577860e+08
1.250625e+05	7.200000e+03	7.500000e+01	7.142215e+02	7.853579e-01	9.039244e-02	-1.334679e-01	-1.021017e-02	2.956231e+00	3.464324e-01	3.302664e+00	-2.626490e-02	-1.324393e+01	2.819671e-01	8.517622e-02	-3.498587e-02	2.754626e+02	3.577923e+08
1.286875e+05	7.200000e+03	7.500000e+01	7.142072e+02	7.853403e-01	9.039255e-02	-1.334679e-01	-1.020842e-02	2.956176e+00	3.464379e-01	3.302614e+00	-2.626531e-02	-1.324485e+01	2.819644e-01	8.517398e-02	-3.498416e-02	2.754619e+02	3.577993e+08
1.323125e+05	7.200000e+03	7.500000e+01	7.141907e+02	7.853194e-01	9.039268e-02	-1.334679e-01	-1.020666e-02	2.956110e+00	3.464439e-01	3.302554e+00	-2.626570e-02	-1.324575e+01	2.819611e-01	8.517135e-02	-3.498213e-02	2.754611e+02	3.578071e+08
1.359375e+05	7.200000e+03	7.500000e+01	7.141715e+02	7.852945e-01	9.039283e-02	-1.334679e-01	-1.020486e-02	2.956032e+00	3.464506e-01	3.302483e+00	-2.626608e-02	-1.324667e+01	2.819571e-01	8.516824e-02	-3.497971e-02	2.754601e+02	3.578159e+08
1.395625e+05	7.200000e+03	7.500000e+01	7.141495e+02	7.852656e-01	9.039301e-02	-1.334679e-01	-1.020303e-02	2.955942e+00	3.464581e-01	3.302400e+00	-2.626646e-02	-1.324758e+01	2.819523e-01	8.516463e-02	-3.497689e-02	2.754590e+02	3.578256e+08
1.431875e+05	7.200000e+03	7.500000e+01	7.141262e+02	7.852344e-01	9.039320e-02	-1.334679e-01	-1.020133e-02	2.955843e+00	3.464651e-01	3.302308e+00	-2.626678e-02	-1.324842e+01	2.819469e-01	8.516076e-02	-3.497384e-02	2.754579e+02	3.578350e+08
1.812500e+03	1.200000e+04	7.500000e+01	7.141546e+02	7.852047e-01	9.039321e-02	-1.334679e-01	-1.025616e-02	2.955811e+00	3.464141e-01	3.302226e+00	-2.625119e-02	-1.321758e+01	2.819313e-01	8.516130e-02	-3.497119e-02	2.754585e+02	3.577796e+08
5.437500e+03	1.200000e+04	7.500000e+01	7.141768e+02	7.852349e-01	9.039303e-02	-1.334679e-01	-1.025748e-02	2.955906e+00	3.464075e-01	3.302314e+00	-2.625096e-02	-1.321695e+01	2.819366e-01	8.516502e-02	-3.497414e-02	2.754596e+02	3.577708e+08
9.062500e+03	1.200000e+04	7.500000e+01	7.141960e+02	7.852612e-01	9.039287e-02	-1.334679e-01	-1.025848e-02	2.955988e+00	3.464017e-01	3.302389e+00	-2.625081e-02	-1.321649e+01	2.819412e-01	8.516823e-02	-3.497670e-02	2.754606e+02	3.577630e+08
1.268750e+04	1.200000e+04	7.500000e+01	7.142126e+02	7.852843e-01	9.039274e-02	-1.334679e-01	-1.025913e-02	2.956058e+00	3.463969e-01	3.302455e+00	-2.625074e-02	-1.321621e+01	2.819451e-01	8.517100e-02	-3.497894e-02	2.754614e+02	3.577565e+08
1.631250e+04	1.200000e+04	7.500000e+01	7.142270e+02	7.853047e-01	9.039261e-02	-1.334679e-01	-1.025948e-02	2.956120e+00	3.463930e-01	3.302513e+00	-2.625074e-02	-1.321609e+01	2.819487e-01	8.517343e-02	-3.498091e-02	2.754621e+02	3.577511e+08
1.993750e+04	1.200000e+04	7.500000e+01	7.142395e+02	7.853229e-01	9.039251e-02	-1.334679e-01	-1.025954e-02	2.956175e+00	3.463899e-01	3.302565e+00	-2.625082e-02	-1.321612e+01	2.819519e-01	8.517557e-02	-3.498267e-02	2.754628e+02	3.577467e+08
2.356250e+04	1.200000e+04	7.500000e+01	7.142504e+02	7.853392e-01	9.039241e-02	-1.334679e-01	-1.025935e-02	2.956223e+00	3.463875e-01	3.302610e+00	-2.625095e-02	-1.321629e+01	2.819548e-01	8.517744e-02	-3.498424e-02	2.754634e+02	3.577431e+08
2.718750e+04	1.200000e+04	7.500000e+01	7.142599e+02	7.853538e-01	9.039233e-02	-1.334679e-01	-1.025891e-02	2.956266e+00	3.463857e-01	3.302651e+00	-2.625115e-02	-1.321658e+01	2.819575e-01	8.517909e-02	-3.498565e-02	2.754639e+02	3.577403e+08
3.081250e+04	1.200000e+04	7.500000e+01	7.142681e+02	7.853670e-01	9.039226e-02	-1.334679e-01	-1.025824e-02	2.956304e+00	3.463845e-01	3.302688e+00	-2.625140e-02	-1.321699e+01	2.819600e-01	8.518055e-02	-3.498691e-02	2.754643e+02	3.577382e+08
3.443750e+04	1.200000e+04	7.500000e+01	7.142752e+02	7.853789e-01	9.039219e-02	-1.334679e-01	-1.025738e-02	2.956338e+00	3.463837e-01	3.302721e+00	-2.625170e-02	-1.321752e+01	2.819623e-01	8.518185e-02	-3.498806e-02	2.754647e+02	3.577367e+08
3.806250e+04	1.200000e+04	7.500000e+01	7.142814e+02	7.853898e-01	9.039213e-02	-1.334679e-01	-1.025633e-02	2.956368e+00	3.463834e-01	3.302752e+00	-2.625205e-02	-1.321814e+01	2.819645e-01	8.518300e-02	-3.498910e-02	2.754650e+02	3.577357e+08
4.168750e+04	1.200000e+04	7.500000e+01	7.142867e+02	7.853998e-01	9.039208e-02	-1.334679e-01	-1.025511e-02	2.956396e+00	3.463835e-01	3.302779e+00	-2.625244e-02	-1.321885e+01	2.819665e-01	8.518402e-02	-3.499005e-02	2.754653e+02	3.577353e+08
4.531250e+04	1.200000e+04	7.500000e+01	7.142912e+02	7.854089e-01	9.039203e-02	-1.334679e-01	-1.025374e-02	2.956421e+00	3.463840e-01	3.302805e+00	-2.625287e-02	-1.321964e+01	2.819685e-01	8.518494e-02	-3.499092e-02	2.754656e+02	3.577353e+08
4.893750e+04	1.200000e+04	7.500000e+01	7.142951e+02	7.854173e-01	9.039199e-02	-1.334679e-01	-1.025223e-02	2.956443e+00	3.463847e-01	3.302828e+00	-2.625333e-02	-1.322051e+01	2.819703e-01	8.518575e-02	-3.499172e-02	2.754658e+02	3.577357e+08
5.256250e+04	1.200000e+04	7.500000e+01	7.142983e+02	7.854250e-01	9.039195e-02	-1.334679e-01	-1.025060e-02	2.956464e+00	3.463858e-01	3.302850e+00	-2.625383e-02	-1.322145e+01	2.819721e-01	8.518648e-02	-3.499245e-02	2.754660e+02	3.577364e+08
5.618750e+04	1.200000e+04	7.500000e+01	7.143010e+02	7.854322e-01	9.039192e-02	-1.334679e-01	-1.024886e-02	2.956482e+00	3.463871e-01	3.302869e+00	-2.625435e-02	-1.322244e+01	2.819738e-01	8.518712e-02	-3.499313e-02	2.754662e+02	3.577375e+08
5.981250e+04	1.200000e+04	7.500000e+01	7.143032e+02	7.854387e-01	9.039189e-02	-1.334679e-01	-1.024703e-02	2.956499e+00	3.463886e-01	3.302888e+00	-2.625490e-02	-1.322348e+01	2.819754e-01	8.518769e-02	-3.499375e-02	2.754663e+02	3.577389e+08
6.343750e+04	1.200000e+04	7.500000e+01	7.143049e+02	7.854446e-01	9.039186e-02	-1.334679e-01	-1.024513e-02	2.956514e+00	3.463904e-01	3.302904e+00	-2.625547e-02	-1.322456e+01	2.819770e-01	8.518819e-02	-3.499431e-02	2.754665e+02	3.577405e+08
6.706250e+04	1.200000e+04	7.500000e+01	7.143061e+02	7.854500e-01	9.039184e-02	-1.334679e-01	-1.024316e-02	2.956527e+00	3.463924e-01	3.302919e+00	-2.625605e-02	-1.322567e+01	2.819785e-01	8.518861e-02	-3.499482e-02	2.754666e+02	3.577424e+08
7.068750e+04	1.200000e+04	7.500000e+01	7.143068e+02	7.854548e-01	9.039182e-02	-1.334679e-01	-1.024114e-02	2.956539e+00	3.463945e-01	3.302933e+00	-2.625664e-02	-1.322682e+01	2.819799e-01	8.518896e-02	-3.499527e-02	2.754667e+02	3.577446e+08
7.431250e+04	1.200000e+04	7.500000e+01	7.143071e+02	7.854590e-01	9.039180e-02	-1.334679e-01	-1.023908e-02	2.956548e+00	3.463968e-01	3.302945e+00	-2.625724e-02	-1.322798e+01	2.819812e-01	8.518925e-02	-3.499567e-02	2.754667e+02	3.577469e+08
7.793750e+04	1.200000e+04	7.500000e+01	7.143069e+02	7.854625e-01	9.039179e-02	-1.334679e-01	-1.023700e-02	2.956556e+00	3.463992e-01	3.302955e+00	-2.625785e-02	-1.322915e+01	2.819824e-01	8.518945e-02	-3.499601e-02	2.754668e+02	3.577494e+08
8.156250e+04	1.200000e+04	7.500000e+01	7.143063e+02	7.854654e-01	9.039178e-02	-1.334679e-01	-1.023490e-02	2.956562e+00	3.464017e-01	3.302964e+00	-2.625845e-02	-1.323033e+01	2.819835e-01	8.518958e-02	-3.499628e-02	2.754668e+02	3.577522e+08
8.518750e+04	1.200000e+04	7.500000e+01	7.143051e+02	7.854676e-01	9.039178e-02	-1.334679e-01	-1.023281e-02	2.956566e+00	3.464044e-01	3.302970e+00	-2.625905e-02	-1.323150e+01	2.819845e-01	8.518963e-02	-3.499648e-02	2.754668e+02	3.577551e+08
8.881250e+04	1.200000e+04	7.500000e+01	7.143033e+02	7.854689e-01	9.039178e-02	-1.334679e-01	-1.023072e-02	2.956567e+00	3.464072e-01	3.302975e+00	-2.625965e-02	-1.323267e+01	2.819853e-01	8.518958e-02	-3.499660e-02	2.754667e+02	3.577582e+08
9.243750e+04	1.200000e+04	7.500000e+01	7.143010e+02	7.854693e-01	9.039178e-02	-1.334679e-01	-1.022864e-02	2.956566e+00	3.464102e-01	3.302976e+00	-2.626024e-02	-1.323383e+01	2.819860e-01	8.518943e-02	-3.499664e-02	2.754667e+02	3.577615e+08
9.606250e+04	1.200000e+04	7.500000e+01	7.142980e+02	7.854688e-01	9.039179e-02	-1.334679e-01	-1.022659e-02	2.956562e+00	3.464133e-01	3.302975e+00	-2.626081e-02	-1.323497e+01	2.819865e-01	8.518917e-02	-3.499658e-02	2.754666e+02	3.577650e+08
9.968750e+04	1.200000e+04	7.500000e+01	7.142943e+02	7.854671e-01	9.039181e-02	-1.334679e-01	-1.022457e-02	2.956555e+00	3.464165e-01	3.302971e+00	-2.626137e-02	-1.323609e+01	2.819868e-01	8.518878e-02	-3.499641e-02	2.754664e+02	3.577687e+08
1.033125e+05	1.200000e+04	7.500000e+01	7.142898e+02	7.854641e-01	9.039184e-02	-1.334679e-01	-1.022259e-02	2.956544e+00	3.464198e-01	3.302964e+00	-2.626192e-02	-1.323719e+01	2.819869e-01	8.518825e-02	-3.499612e-02	2.754662e+02	3.577727e+08
1.069375e+05	1.200000e+04	7.500000e+01	7.142843e+02	7.854598e-01	9.039187e-02	-1.334679e-01	-1.022064e-02	2.956529e+00	3.464234e-01	3.302952e+00	-2.626245e-02	-1.323826e+01	2.819867e-01	8.518756e-02	-3.499570e-02	2.754660e+02	3.577770e+08
1.105625e+05	1.200000e+04	7.500000e+01	7.142779e+02	7.854539e-01	9.039191e-02	-1.334679e-01	-1.021873e-02	2.956509e+00	3.464271e-01	3.302936e+00	-2.626296e-02	-1.323930e+01	2.819862e-01	8.518669e-02	-3.499513e-02	2.754657e+02	3.577815e+08
1.141875e+05	1.200000e+04	7.500000e+01	7.142702e+02	7.854461e-01	9.039196e-02	-1.334679e-01	-1.021687e-02	2.956484e+00	3.464311e-01	3.302915e+00	-2.626345e-02	-1.324032e+01	2.819854e-01	8.518561e-02	-3.499438e-02	2.754654e+02	3.577864e+08
1.178125e+05	1.200000e+04	7.500000e+01	7.142612e+02	7.854364e-01	9.039203e-02	-1.334679e-01	-1.021503e-02	2.956453e+00	3.464354e-01	3.302888e+00	-2.626392e-02	-1.324131e+01	2.819842e-01	8.518430e-02	-3.499343e-02	2.754649e+02	3.577918e+08
1.214375e+05	1.200000e+04	7.500000e+01	7.142507e+02	7.854244e-01	9.039210e-02	-1.334679e-01	-1.021323e-02	2.956414e+00	3.464400e-01	3.302854e+00	-2.626437e-02	-1.324227e+01	2.819826e-01	8.518273e-02	-3.499226e-02	2.754644e+02	3.577976e+08
1.250625e+05	1.200000e+04	7.500000e+01	7.142385e+02	7.854097e-01	9.039220e-02	-1.334679e-01	-1.021145e-02	2.956368e+00	3.464450e-01	3.302813e+00	-2.626480e-02	-1.324321e+01	2.819805e-01	8.518085e-02	-3.499084e-02	2.754638e+02	3.578039e+08
1.286875e+05	1.200000e+04	7.500000e+01	7.142243e+02	7.853922e-01	9.039231e-02	-1.334679e-01	-1.020969e-02	2.956313e+00	3.464505e-01	3.302764e+00	-2.626521e-02	-1.324413e+01	2.819779e-01	8.517861e-02	-3.498914e-02	2.754631e+02	3.578110e+08
1.323125e+05	1.200000e+04	7.500000e+01	7.142078e+02	7.853713e-01	9.039243e-02	-1.334679e-01	-1.020791e-02	2.956248e+00	3.464565e-01	3.302704e+00	-2.626560e-02	-1.324505e+01	2.819746e-01	8.517599e-02	-3.498711e-02	2.754623e+02	3.578188e+08
1.359375e+05	1.200000e+04	7.500000e+01	7.141885e+02	7.853465e-01	9.039259e-02	-1.334679e-01	-1.020611e-02	2.956170e+00	3.464632e-01	3.302633e+00	-2.626599e-02	-1.324597e+01	2.819706e-01	8.517288e-02	-3.498469e-02	2.754614e+02	3.578275e+08
1.395625e+05	1.200000e+04	7.500000e+01	7.141665e+02	7.853176e-01	9.039276e-02	-1.334679e-01	-1.020427e-02	2.956079e+00	3.464707e-01	3.302550e+00	-2.626636e-02	-1.324689e+01	2.819658e-01	8.516927e-02	-3.498187e-02	2.754603e+02	3.578372e+08
1.431875e+05	1.200000e+04	7.500000e+01	7.141432e+02	7.852865e-01	9.039295e-02	-1.334679e-01	-1.020257e-02	2.955981e+00	3.464777e-01	3.302459e+00	-2.626669e-02	-1.324773e+01	2.819603e-01	8.516540e-02	-3.497882e-02	2.754591e+02	3.578467e+08
1.812500e+03	1.680000e+04	7.500000e+01	7.141645e+02	7.852587e-01	9.039298e-02	-1.334679e-01	-1.025861e-02	2.955946e+00	3.464361e-01	3.302382e+00	-2.625075e-02	-1.321613e+01	2.819470e-01	8.516550e-02	-3.497633e-02	2.754595e+02	3.578018e+08
5.437500e+03	1.680000e+04	7.500000e+01	7.141867e+02	7.852889e-01	9.039280e-02	-1.334679e-01	-1.025993e-02	2.956040e+00	3.464296e-01	3.302470e+00	-2.625053e-02	-1.321550e+01	2.819523e-01	8.516921e-02	-3.497928e-02	2.754606e+02	3.577929e+08
9.062500e+03	1.680000e+04	7.500000e+01	7.142059e+02	7.853153e-01	9.039264e-02	-1.334679e-01	-1.026092e-02	2.956122e+00	3.464238e-01	3.302546e+00	-2.625038e-02	-1.321504e+01	2.819568e-01	8.517242e-02	-3.498184e-02	2.754616e+02	3.577851e+08
1.268750e+04	1.680000e+04	7.500000e+01	7.142225e+02	7.853384e-01	9.039251e-02	-1.334679e-01	-1.026155e-02	2.956193e+00	3.464190e-01	3.302612e+00	-2.625032e-02	-1.321477e+01	2.819608e-01	8.517520e-02	-3.498408e-02	2.754624e+02	3.577786e+08