TITLE = "z-anode/separator fields" 
FILETYPE = FULL
VARIABLES = "x" "y" "z" "Cf" "Cs" "Us" "Ps" "Pf" "J1""J2""J" "Ph" "Pi" "Qk" "Qo" "Qr" "Tcell""nLi" 
ZONE
I=40,     J=40,     K=1
ZONETYPE=Ordered, DATAPACKING=Point
1.812500e+03	2.400000e+03	7.500000e+01	7.640197e+02	4.718579e-01	1.111104e-01	-9.815769e-02	-9.644857e-04	3.329078e+00	1.724725e-01	3.501550e+00	-9.404500e-03	-2.315331e+00	2.915065e-01	8.243435e-02	-5.834212e-02	2.754771e+02	8.701525e+07
5.437500e+03	2.400000e+03	7.500000e+01	7.640376e+02	4.718778e-01	1.111046e-01	-9.815769e-02	-9.638182e-04	3.329094e+00	1.724784e-01	3.501573e+00	-9.404452e-03	-2.315276e+00	2.915009e-01	8.244009e-02	-5.833925e-02	2.754782e+02	8.701386e+07
9.062500e+03	2.400000e+03	7.500000e+01	7.640532e+02	4.718954e-01	1.110994e-01	-9.815769e-02	-9.630654e-04	3.329109e+00	1.724836e-01	3.501593e+00	-9.404432e-03	-2.315245e+00	2.914959e-01	8.244517e-02	-5.833673e-02	2.754792e+02	8.701264e+07
1.268750e+04	2.400000e+03	7.500000e+01	7.640666e+02	4.719109e-01	1.110949e-01	-9.815769e-02	-9.621952e-04	3.329122e+00	1.724883e-01	3.501611e+00	-9.404442e-03	-2.315238e+00	2.914917e-01	8.244962e-02	-5.833452e-02	2.754801e+02	8.701164e+07
1.631250e+04	2.400000e+03	7.500000e+01	7.640784e+02	4.719246e-01	1.110908e-01	-9.815769e-02	-9.611994e-04	3.329134e+00	1.724927e-01	3.501627e+00	-9.404480e-03	-2.315254e+00	2.914879e-01	8.245355e-02	-5.833256e-02	2.754808e+02	8.701084e+07
1.993750e+04	2.400000e+03	7.500000e+01	7.640886e+02	4.719368e-01	1.110872e-01	-9.815769e-02	-9.600764e-04	3.329144e+00	1.724967e-01	3.501641e+00	-9.404545e-03	-2.315293e+00	2.914847e-01	8.245704e-02	-5.833080e-02	2.754815e+02	8.701023e+07
2.356250e+04	2.400000e+03	7.500000e+01	7.640974e+02	4.719477e-01	1.110840e-01	-9.815769e-02	-9.588265e-04	3.329153e+00	1.725006e-01	3.501654e+00	-9.404636e-03	-2.315352e+00	2.914818e-01	8.246015e-02	-5.832923e-02	2.754821e+02	8.700977e+07
2.718750e+04	2.400000e+03	7.500000e+01	7.641051e+02	4.719576e-01	1.110811e-01	-9.815769e-02	-9.574515e-04	3.329161e+00	1.725042e-01	3.501665e+00	-9.404752e-03	-2.315430e+00	2.914793e-01	8.246292e-02	-5.832782e-02	2.754826e+02	8.700947e+07
3.081250e+04	2.400000e+03	7.500000e+01	7.641118e+02	4.719665e-01	1.110785e-01	-9.815769e-02	-9.559550e-04	3.329167e+00	1.725076e-01	3.501675e+00	-9.404890e-03	-2.315526e+00	2.914771e-01	8.246541e-02	-5.832653e-02	2.754831e+02	8.700931e+07
3.443750e+04	2.400000e+03	7.500000e+01	7.641176e+02	4.719745e-01	1.110761e-01	-9.815769e-02	-9.543418e-04	3.329173e+00	1.725110e-01	3.501684e+00	-9.405049e-03	-2.315640e+00	2.914752e-01	8.246764e-02	-5.832535e-02	2.754835e+02	8.700927e+07
3.806250e+04	2.400000e+03	7.500000e+01	7.641227e+02	4.719819e-01	1.110740e-01	-9.815769e-02	-9.526183e-04	3.329178e+00	1.725142e-01	3.501692e+00	-9.405228e-03	-2.315768e+00	2.914734e-01	8.246965e-02	-5.832428e-02	2.754838e+02	8.700934e+07
4.168750e+04	2.400000e+03	7.500000e+01	7.641270e+02	4.719887e-01	1.110720e-01	-9.815769e-02	-9.507919e-04	3.329182e+00	1.725174e-01	3.501699e+00	-9.405425e-03	-2.315912e+00	2.914719e-01	8.247146e-02	-5.832328e-02	2.754842e+02	8.700951e+07
4.531250e+04	2.400000e+03	7.500000e+01	7.641306e+02	4.719949e-01	1.110702e-01	-9.815769e-02	-9.488713e-04	3.329185e+00	1.725205e-01	3.501705e+00	-9.405638e-03	-2.316068e+00	2.914705e-01	8.247309e-02	-5.832236e-02	2.754844e+02	8.700978e+07
4.893750e+04	2.400000e+03	7.500000e+01	7.641338e+02	4.720006e-01	1.110685e-01	-9.815769e-02	-9.468661e-04	3.329187e+00	1.725235e-01	3.501711e+00	-9.405866e-03	-2.316235e+00	2.914693e-01	8.247457e-02	-5.832151e-02	2.754847e+02	8.701013e+07
5.256250e+04	2.400000e+03	7.500000e+01	7.641364e+02	4.720059e-01	1.110670e-01	-9.815769e-02	-9.447867e-04	3.329189e+00	1.725265e-01	3.501715e+00	-9.406107e-03	-2.316413e+00	2.914682e-01	8.247590e-02	-5.832071e-02	2.754849e+02	8.701056e+07
5.618750e+04	2.400000e+03	7.500000e+01	7.641386e+02	4.720107e-01	1.110656e-01	-9.815769e-02	-9.426446e-04	3.329189e+00	1.725294e-01	3.501719e+00	-9.406359e-03	-2.316601e+00	2.914672e-01	8.247709e-02	-5.831996e-02	2.754851e+02	8.701105e+07
5.981250e+04	2.400000e+03	7.500000e+01	7.641403e+02	4.720152e-01	1.110642e-01	-9.815769e-02	-9.404518e-04	3.329190e+00	1.725323e-01	3.501722e+00	-9.406621e-03	-2.316795e+00	2.914663e-01	8.247816e-02	-5.831927e-02	2.754853e+02	8.701161e+07
6.343750e+04	2.400000e+03	7.500000e+01	7.641416e+02	4.720193e-01	1.110631e-01	-9.815769e-02	-9.382208e-04	3.329189e+00	1.725351e-01	3.501724e+00	-9.406890e-03	-2.316996e+00	2.914656e-01	8.247911e-02	-5.831863e-02	2.754854e+02	8.701223e+07
6.706250e+04	2.400000e+03	7.500000e+01	7.641425e+02	4.720230e-01	1.110620e-01	-9.815769e-02	-9.359649e-04	3.329188e+00	1.725378e-01	3.501726e+00	-9.407166e-03	-2.317202e+00	2.914649e-01	8.247993e-02	-5.831803e-02	2.754855e+02	8.701289e+07
7.068750e+04	2.400000e+03	7.500000e+01	7.641430e+02	4.720263e-01	1.110610e-01	-9.815769e-02	-9.336977e-04	3.329187e+00	1.725405e-01	3.501727e+00	-9.407445e-03	-2.317412e+00	2.914644e-01	8.248063e-02	-5.831749e-02	2.754856e+02	8.701360e+07
7.431250e+04	2.400000e+03	7.500000e+01	7.641432e+02	4.720292e-01	1.110602e-01	-9.815769e-02	-9.314329e-04	3.329184e+00	1.725430e-01	3.501727e+00	-9.407728e-03	-2.317624e+00	2.914639e-01	8.248121e-02	-5.831700e-02	2.754857e+02	8.701435e+07
7.793750e+04	2.400000e+03	7.500000e+01	7.641430e+02	4.720317e-01	1.110595e-01	-9.815769e-02	-9.291847e-04	3.329182e+00	1.725454e-01	3.501727e+00	-9.408011e-03	-2.317837e+00	2.914635e-01	8.248166e-02	-5.831657e-02	2.754857e+02	8.701514e+07
8.156250e+04	2.400000e+03	7.500000e+01	7.641423e+02	4.720337e-01	1.110589e-01	-9.815769e-02	-9.269674e-04	3.329178e+00	1.725477e-01	3.501726e+00	-9.408293e-03	-2.318049e+00	2.914633e-01	8.248197e-02	-5.831621e-02	2.754857e+02	8.701595e+07
8.518750e+04	2.400000e+03	7.500000e+01	7.641412e+02	4.720353e-01	1.110584e-01	-9.815769e-02	-9.247953e-04	3.329174e+00	1.725498e-01	3.501724e+00	-9.408572e-03	-2.318261e+00	2.914632e-01	8.248213e-02	-5.831591e-02	2.754857e+02	8.701680e+07
8.881250e+04	2.400000e+03	7.500000e+01	7.641397e+02	4.720362e-01	1.110582e-01	-9.815769e-02	-9.226828e-04	3.329170e+00	1.725518e-01	3.501722e+00	-9.408848e-03	-2.318469e+00	2.914632e-01	8.248213e-02	-5.831568e-02	2.754857e+02	8.701768e+07
9.243750e+04	2.400000e+03	7.500000e+01	7.641377e+02	4.720366e-01	1.110581e-01	-9.815769e-02	-9.206440e-04	3.329165e+00	1.725535e-01	3.501718e+00	-9.409117e-03	-2.318674e+00	2.914634e-01	8.248196e-02	-5.831555e-02	2.754856e+02	8.701858e+07
9.606250e+04	2.400000e+03	7.500000e+01	7.641352e+02	4.720363e-01	1.110582e-01	-9.815769e-02	-9.186930e-04	3.329159e+00	1.725550e-01	3.501714e+00	-9.409380e-03	-2.318875e+00	2.914637e-01	8.248159e-02	-5.831551e-02	2.754855e+02	8.701950e+07
9.968750e+04	2.400000e+03	7.500000e+01	7.641320e+02	4.720352e-01	1.110585e-01	-9.815769e-02	-9.168438e-04	3.329153e+00	1.725562e-01	3.501709e+00	-9.409634e-03	-2.319069e+00	2.914642e-01	8.248101e-02	-5.831557e-02	2.754854e+02	8.702045e+07
1.033125e+05	2.400000e+03	7.500000e+01	7.641282e+02	4.720333e-01	1.110591e-01	-9.815769e-02	-9.151101e-04	3.329146e+00	1.725571e-01	3.501703e+00	-9.409879e-03	-2.319258e+00	2.914650e-01	8.248019e-02	-5.831576e-02	2.754852e+02	8.702143e+07
1.069375e+05	2.400000e+03	7.500000e+01	7.641236e+02	4.720305e-01	1.110599e-01	-9.815769e-02	-9.135051e-04	3.329138e+00	1.725576e-01	3.501695e+00	-9.410113e-03	-2.319439e+00	2.914659e-01	8.247911e-02	-5.831609e-02	2.754849e+02	8.702243e+07
1.105625e+05	2.400000e+03	7.500000e+01	7.641182e+02	4.720266e-01	1.110611e-01	-9.815769e-02	-9.120420e-04	3.329129e+00	1.725578e-01	3.501687e+00	-9.410336e-03	-2.319612e+00	2.914672e-01	8.247773e-02	-5.831657e-02	2.754846e+02	8.702347e+07
1.141875e+05	2.400000e+03	7.500000e+01	7.641119e+02	4.720215e-01	1.110626e-01	-9.815769e-02	-9.107334e-04	3.329120e+00	1.725575e-01	3.501678e+00	-9.410546e-03	-2.319777e+00	2.914688e-01	8.247601e-02	-5.831722e-02	2.754842e+02	8.702454e+07
1.178125e+05	2.400000e+03	7.500000e+01	7.641045e+02	4.720150e-01	1.110645e-01	-9.815769e-02	-9.095918e-04	3.329110e+00	1.725567e-01	3.501667e+00	-9.410743e-03	-2.319933e+00	2.914707e-01	8.247391e-02	-5.831807e-02	2.754838e+02	8.702566e+07
1.214375e+05	2.400000e+03	7.500000e+01	7.640958e+02	4.720070e-01	1.110669e-01	-9.815769e-02	-9.086292e-04	3.329099e+00	1.725554e-01	3.501654e+00	-9.410927e-03	-2.320080e+00	2.914731e-01	8.247139e-02	-5.831915e-02	2.754833e+02	8.702683e+07
1.250625e+05	2.400000e+03	7.500000e+01	7.640858e+02	4.719973e-01	1.110698e-01	-9.815769e-02	-9.078574e-04	3.329087e+00	1.725535e-01	3.501640e+00	-9.411097e-03	-2.320219e+00	2.914760e-01	8.246838e-02	-5.832048e-02	2.754827e+02	8.702807e+07
1.286875e+05	2.400000e+03	7.500000e+01	7.640741e+02	4.719856e-01	1.110732e-01	-9.815769e-02	-9.072879e-04	3.329073e+00	1.725509e-01	3.501624e+00	-9.411254e-03	-2.320349e+00	2.914794e-01	8.246484e-02	-5.832210e-02	2.754819e+02	8.702938e+07
1.323125e+05	2.400000e+03	7.500000e+01	7.640607e+02	4.719717e-01	1.110773e-01	-9.815769e-02	-9.069319e-04	3.329059e+00	1.725475e-01	3.501606e+00	-9.411397e-03	-2.320471e+00	2.914834e-01	8.246067e-02	-5.832405e-02	2.754811e+02	8.703078e+07
1.359375e+05	2.400000e+03	7.500000e+01	7.640450e+02	4.719552e-01	1.110822e-01	-9.815769e-02	-9.068043e-04	3.329042e+00	1.725433e-01	3.501585e+00	-9.411527e-03	-2.320585e+00	2.914881e-01	8.245577e-02	-5.832639e-02	2.754801e+02	8.703230e+07
1.395625e+05	2.400000e+03	7.500000e+01	7.640273e+02	4.719361e-01	1.110878e-01	-9.815769e-02	-9.069036e-04	3.329024e+00	1.725382e-01	3.501563e+00	-9.411644e-03	-2.320692e+00	2.914936e-01	8.245018e-02	-5.832909e-02	2.754790e+02	8.703393e+07
1.431875e+05	2.400000e+03	7.500000e+01	7.640082e+02	4.719153e-01	1.110939e-01	-9.815769e-02	-9.072744e-04	3.329007e+00	1.725322e-01	3.501539e+00	-9.411738e-03	-2.320782e+00	2.914996e-01	8.244414e-02	-5.833208e-02	2.754778e+02	8.703546e+07
1.812500e+03	7.200000e+03	7.500000e+01	7.640390e+02	4.718894e-01	1.111012e-01	-9.815769e-02	-9.636286e-04	3.329087e+00	1.724878e-01	3.501575e+00	-9.404400e-03	-2.315211e+00	2.914989e-01	8.244248e-02	-5.833733e-02	2.754785e+02	8.701647e+07
5.437500e+03	7.200000e+03	7.500000e+01	7.640571e+02	4.719095e-01	1.110953e-01	-9.815769e-02	-9.629538e-04	3.329104e+00	1.724938e-01	3.501598e+00	-9.404351e-03	-2.315157e+00	2.914932e-01	8.244827e-02	-5.833444e-02	2.754796e+02	8.701507e+07
9.062500e+03	7.200000e+03	7.500000e+01	7.640727e+02	4.719271e-01	1.110901e-01	-9.815769e-02	-9.621972e-04	3.329119e+00	1.724990e-01	3.501618e+00	-9.404332e-03	-2.315125e+00	2.914882e-01	8.245335e-02	-5.833192e-02	2.754806e+02	8.701385e+07
1.268750e+04	7.200000e+03	7.500000e+01	7.640862e+02	4.719425e-01	1.110856e-01	-9.815769e-02	-9.613209e-04	3.329132e+00	1.725037e-01	3.501635e+00	-9.404342e-03	-2.315119e+00	2.914839e-01	8.245780e-02	-5.832971e-02	2.754815e+02	8.701285e+07
1.631250e+04	7.200000e+03	7.500000e+01	7.640979e+02	4.719562e-01	1.110816e-01	-9.815769e-02	-9.603168e-04	3.329143e+00	1.725081e-01	3.501651e+00	-9.404382e-03	-2.315136e+00	2.914802e-01	8.246173e-02	-5.832774e-02	2.754823e+02	8.701206e+07
1.993750e+04	7.200000e+03	7.500000e+01	7.641081e+02	4.719685e-01	1.110780e-01	-9.815769e-02	-9.591838e-04	3.329153e+00	1.725121e-01	3.501665e+00	-9.404448e-03	-2.315176e+00	2.914769e-01	8.246523e-02	-5.832599e-02	2.754829e+02	8.701145e+07
2.356250e+04	7.200000e+03	7.500000e+01	7.641170e+02	4.719794e-01	1.110747e-01	-9.815769e-02	-9.579221e-04	3.329162e+00	1.725160e-01	3.501678e+00	-9.404541e-03	-2.315236e+00	2.914741e-01	8.246834e-02	-5.832441e-02	2.754835e+02	8.701100e+07
2.718750e+04	7.200000e+03	7.500000e+01	7.641247e+02	4.719893e-01	1.110718e-01	-9.815769e-02	-9.565337e-04	3.329170e+00	1.725196e-01	3.501689e+00	-9.404657e-03	-2.315315e+00	2.914716e-01	8.247112e-02	-5.832299e-02	2.754841e+02	8.701070e+07
3.081250e+04	7.200000e+03	7.500000e+01	7.641314e+02	4.719982e-01	1.110692e-01	-9.815769e-02	-9.550222e-04	3.329176e+00	1.725231e-01	3.501699e+00	-9.404797e-03	-2.315413e+00	2.914693e-01	8.247361e-02	-5.832170e-02	2.754845e+02	8.701054e+07
3.443750e+04	7.200000e+03	7.500000e+01	7.641372e+02	4.720063e-01	1.110668e-01	-9.815769e-02	-9.533927e-04	3.329182e+00	1.725265e-01	3.501708e+00	-9.404958e-03	-2.315528e+00	2.914674e-01	8.247584e-02	-5.832052e-02	2.754849e+02	8.701050e+07
3.806250e+04	7.200000e+03	7.500000e+01	7.641422e+02	4.720137e-01	1.110647e-01	-9.815769e-02	-9.516513e-04	3.329187e+00	1.725297e-01	3.501716e+00	-9.405139e-03	-2.315658e+00	2.914656e-01	8.247786e-02	-5.831944e-02	2.754853e+02	8.701058e+07
4.168750e+04	7.200000e+03	7.500000e+01	7.641466e+02	4.720205e-01	1.110627e-01	-9.815769e-02	-9.498059e-04	3.329190e+00	1.725329e-01	3.501723e+00	-9.405338e-03	-2.315803e+00	2.914641e-01	8.247967e-02	-5.831844e-02	2.754856e+02	8.701076e+07
4.531250e+04	7.200000e+03	7.500000e+01	7.641503e+02	4.720268e-01	1.110609e-01	-9.815769e-02	-9.478650e-04	3.329193e+00	1.725360e-01	3.501729e+00	-9.405554e-03	-2.315961e+00	2.914627e-01	8.248132e-02	-5.831751e-02	2.754859e+02	8.701103e+07
4.893750e+04	7.200000e+03	7.500000e+01	7.641534e+02	4.720325e-01	1.110592e-01	-9.815769e-02	-9.458385e-04	3.329196e+00	1.725391e-01	3.501735e+00	-9.405785e-03	-2.316130e+00	2.914615e-01	8.248280e-02	-5.831665e-02	2.754861e+02	8.701139e+07
5.256250e+04	7.200000e+03	7.500000e+01	7.641560e+02	4.720378e-01	1.110576e-01	-9.815769e-02	-9.437369e-04	3.329197e+00	1.725421e-01	3.501739e+00	-9.406028e-03	-2.316311e+00	2.914604e-01	8.248414e-02	-5.831585e-02	2.754864e+02	8.701182e+07
5.618750e+04	7.200000e+03	7.500000e+01	7.641582e+02	4.720427e-01	1.110562e-01	-9.815769e-02	-9.415718e-04	3.329198e+00	1.725451e-01	3.501743e+00	-9.406283e-03	-2.316500e+00	2.914594e-01	8.248534e-02	-5.831510e-02	2.754866e+02	8.701232e+07
5.981250e+04	7.200000e+03	7.500000e+01	7.641599e+02	4.720472e-01	1.110549e-01	-9.815769e-02	-9.393553e-04	3.329198e+00	1.725480e-01	3.501746e+00	-9.406548e-03	-2.316697e+00	2.914585e-01	8.248642e-02	-5.831440e-02	2.754867e+02	8.701289e+07
6.343750e+04	7.200000e+03	7.500000e+01	7.641612e+02	4.720513e-01	1.110537e-01	-9.815769e-02	-9.371002e-04	3.329198e+00	1.725508e-01	3.501749e+00	-9.406821e-03	-2.316900e+00	2.914577e-01	8.248737e-02	-5.831375e-02	2.754869e+02	8.701351e+07
6.706250e+04	7.200000e+03	7.500000e+01	7.641622e+02	4.720551e-01	1.110526e-01	-9.815769e-02	-9.348198e-04	3.329197e+00	1.725535e-01	3.501750e+00	-9.407099e-03	-2.317108e+00	2.914571e-01	8.248820e-02	-5.831315e-02	2.754870e+02	8.701418e+07
7.068750e+04	7.200000e+03	7.500000e+01	7.641627e+02	4.720584e-01	1.110516e-01	-9.815769e-02	-9.325278e-04	3.329195e+00	1.725562e-01	3.501751e+00	-9.407382e-03	-2.317320e+00	2.914565e-01	8.248891e-02	-5.831260e-02	2.754871e+02	8.701490e+07
7.431250e+04	7.200000e+03	7.500000e+01	7.641629e+02	4.720614e-01	1.110508e-01	-9.815769e-02	-9.302383e-04	3.329193e+00	1.725588e-01	3.501751e+00	-9.407667e-03	-2.317534e+00	2.914560e-01	8.248950e-02	-5.831211e-02	2.754872e+02	8.701566e+07
7.793750e+04	7.200000e+03	7.500000e+01	7.641626e+02	4.720639e-01	1.110500e-01	-9.815769e-02	-9.279655e-04	3.329190e+00	1.725612e-01	3.501751e+00	-9.407953e-03	-2.317749e+00	2.914557e-01	8.248995e-02	-5.831167e-02	2.754872e+02	8.701645e+07
8.156250e+04	7.200000e+03	7.500000e+01	7.641620e+02	4.720659e-01	1.110494e-01	-9.815769e-02	-9.257238e-04	3.329186e+00	1.725635e-01	3.501750e+00	-9.408238e-03	-2.317964e+00	2.914554e-01	8.249027e-02	-5.831130e-02	2.754872e+02	8.701728e+07
8.518750e+04	7.200000e+03	7.500000e+01	7.641609e+02	4.720675e-01	1.110490e-01	-9.815769e-02	-9.235277e-04	3.329183e+00	1.725657e-01	3.501748e+00	-9.408521e-03	-2.318178e+00	2.914553e-01	8.249044e-02	-5.831099e-02	2.754872e+02	8.701813e+07
8.881250e+04	7.200000e+03	7.500000e+01	7.641594e+02	4.720685e-01	1.110487e-01	-9.815769e-02	-9.213917e-04	3.329178e+00	1.725676e-01	3.501746e+00	-9.408799e-03	-2.318389e+00	2.914553e-01	8.249045e-02	-5.831076e-02	2.754872e+02	8.701902e+07
9.243750e+04	7.200000e+03	7.500000e+01	7.641574e+02	4.720689e-01	1.110486e-01	-9.815769e-02	-9.193302e-04	3.329173e+00	1.725694e-01	3.501742e+00	-9.409071e-03	-2.318596e+00	2.914555e-01	8.249028e-02	-5.831062e-02	2.754871e+02	8.701992e+07
9.606250e+04	7.200000e+03	7.500000e+01	7.641549e+02	4.720686e-01	1.110487e-01	-9.815769e-02	-9.173574e-04	3.329167e+00	1.725709e-01	3.501738e+00	-9.409337e-03	-2.318798e+00	2.914558e-01	8.248992e-02	-5.831058e-02	2.754870e+02	8.702086e+07
9.968750e+04	7.200000e+03	7.500000e+01	7.641517e+02	4.720676e-01	1.110490e-01	-9.815769e-02	-9.154874e-04	3.329161e+00	1.725721e-01	3.501733e+00	-9.409594e-03	-2.318995e+00	2.914563e-01	8.248935e-02	-5.831064e-02	2.754868e+02	8.702181e+07
1.033125e+05	7.200000e+03	7.500000e+01	7.641479e+02	4.720657e-01	1.110496e-01	-9.815769e-02	-9.137339e-04	3.329154e+00	1.725730e-01	3.501727e+00	-9.409841e-03	-2.319185e+00	2.914570e-01	8.248853e-02	-5.831082e-02	2.754866e+02	8.702280e+07
1.069375e+05	7.200000e+03	7.500000e+01	7.641433e+02	4.720629e-01	1.110504e-01	-9.815769e-02	-9.121105e-04	3.329146e+00	1.725736e-01	3.501720e+00	-9.410077e-03	-2.319367e+00	2.914580e-01	8.248745e-02	-5.831114e-02	2.754864e+02	8.702381e+07
1.105625e+05	7.200000e+03	7.500000e+01	7.641379e+02	4.720590e-01	1.110516e-01	-9.815769e-02	-9.106303e-04	3.329138e+00	1.725738e-01	3.501711e+00	-9.410302e-03	-2.319542e+00	2.914593e-01	8.248608e-02	-5.831162e-02	2.754861e+02	8.702485e+07
1.141875e+05	7.200000e+03	7.500000e+01	7.641316e+02	4.720539e-01	1.110531e-01	-9.815769e-02	-9.093061e-04	3.329128e+00	1.725735e-01	3.501702e+00	-9.410514e-03	-2.319709e+00	2.914609e-01	8.248436e-02	-5.831227e-02	2.754857e+02	8.702593e+07
1.178125e+05	7.200000e+03	7.500000e+01	7.641242e+02	4.720475e-01	1.110550e-01	-9.815769e-02	-9.081504e-04	3.329118e+00	1.725728e-01	3.501691e+00	-9.410713e-03	-2.319866e+00	2.914628e-01	8.248227e-02	-5.831312e-02	2.754853e+02	8.702705e+07
1.214375e+05	7.200000e+03	7.500000e+01	7.641155e+02	4.720395e-01	1.110574e-01	-9.815769e-02	-9.071755e-04	3.329107e+00	1.725715e-01	3.501679e+00	-9.410899e-03	-2.320015e+00	2.914652e-01	8.247975e-02	-5.831420e-02	2.754847e+02	8.702823e+07
1.250625e+05	7.200000e+03	7.500000e+01	7.641055e+02	4.720298e-01	1.110602e-01	-9.815769e-02	-9.063931e-04	3.329095e+00	1.725696e-01	3.501664e+00	-9.411070e-03	-2.320154e+00	2.914680e-01	8.247675e-02	-5.831553e-02	2.754841e+02	8.702947e+07
1.286875e+05	7.200000e+03	7.500000e+01	7.640938e+02	4.720181e-01	1.110637e-01	-9.815769e-02	-9.058149e-04	3.329082e+00	1.725670e-01	3.501649e+00	-9.411228e-03	-2.320285e+00	2.914714e-01	8.247320e-02	-5.831715e-02	2.754834e+02	8.703078e+07
1.323125e+05	7.200000e+03	7.500000e+01	7.640804e+02	4.720042e-01	1.110678e-01	-9.815769e-02	-9.054518e-04	3.329067e+00	1.725636e-01	3.501631e+00	-9.411372e-03	-2.320408e+00	2.914755e-01	8.246904e-02	-5.831909e-02	2.754826e+02	8.703219e+07
1.359375e+05	7.200000e+03	7.500000e+01	7.640647e+02	4.719877e-01	1.110727e-01	-9.815769e-02	-9.053187e-04	3.329051e+00	1.725594e-01	3.501610e+00	-9.411503e-03	-2.320523e+00	2.914802e-01	8.246414e-02	-5.832142e-02	2.754816e+02	8.703371e+07
1.395625e+05	7.200000e+03	7.500000e+01	7.640468e+02	4.719685e-01	1.110783e-01	-9.815769e-02	-9.054198e-04	3.329033e+00	1.725543e-01	3.501587e+00	-9.411621e-03	-2.320630e+00	2.914858e-01	8.245849e-02	-5.832416e-02	2.754805e+02	8.703536e+07
1.431875e+05	7.200000e+03	7.500000e+01	7.640279e+02	4.719478e-01	1.110844e-01	-9.815769e-02	-9.057837e-04	3.329015e+00	1.725483e-01	3.501564e+00	-9.411715e-03	-2.320720e+00	2.914917e-01	8.245249e-02	-5.832712e-02	2.754793e+02	8.703688e+07
1.812500e+03	1.200000e+04	7.500000e+01	7.640521e+02	4.719241e-01	1.110911e-01	-9.815769e-02	-9.626254e-04	3.329082e+00	1.725102e-01	3.501593e+00	-9.404300e-03	-2.315074e+00	2.914917e-01	8.245055e-02	-5.833185e-02	2.754798e+02	8.702098e+07
5.437500e+03	1.200000e+04	7.500000e+01	7.640701e+02	4.719442e-01	1.110852e-01	-9.815769e-02	-9.619462e-04	3.329099e+00	1.725161e-01	3.501615e+00	-9.404252e-03	-2.315020e+00	2.914860e-01	8.245634e-02	-5.832896e-02	2.754809e+02	8.701958e+07
9.062500e+03	1.200000e+04	7.500000e+01	7.640857e+02	4.719617e-01	1.110801e-01	-9.815769e-02	-9.611813e-04	3.329113e+00	1.725214e-01	3.501635e+00	-9.404233e-03	-2.314989e+00	2.914810e-01	8.246142e-02	-5.832644e-02	2.754819e+02	8.701836e+07
1.268750e+04	1.200000e+04	7.500000e+01	7.640992e+02	4.719772e-01	1.110755e-01	-9.815769e-02	-9.602927e-04	3.329126e+00	1.725261e-01	3.501652e+00	-9.404245e-03	-2.314984e+00	2.914767e-01	8.246587e-02	-5.832422e-02	2.754828e+02	8.701737e+07
1.631250e+04	1.200000e+04	7.500000e+01	7.641109e+02	4.719909e-01	1.110715e-01	-9.815769e-02	-9.592727e-04	3.329138e+00	1.725305e-01	3.501668e+00	-9.404286e-03	-2.315003e+00	2.914730e-01	8.246981e-02	-5.832225e-02	2.754835e+02	8.701658e+07
1.993750e+04	1.200000e+04	7.500000e+01	7.641212e+02	4.720032e-01	1.110679e-01	-9.815769e-02	-9.581201e-04	3.329148e+00	1.725346e-01	3.501682e+00	-9.404355e-03	-2.315044e+00	2.914697e-01	8.247331e-02	-5.832049e-02	2.754842e+02	8.701597e+07
2.356250e+04	1.200000e+04	7.500000e+01	7.641301e+02	4.720141e-01	1.110646e-01	-9.815769e-02	-9.568353e-04	3.329157e+00	1.725384e-01	3.501695e+00	-9.404451e-03	-2.315106e+00	2.914668e-01	8.247643e-02	-5.831891e-02	2.754848e+02	8.701553e+07
2.718750e+04	1.200000e+04	7.500000e+01	7.641378e+02	4.720240e-01	1.110617e-01	-9.815769e-02	-9.554206e-04	3.329164e+00	1.725421e-01	3.501706e+00	-9.404571e-03	-2.315188e+00	2.914643e-01	8.247922e-02	-5.831748e-02	2.754853e+02	8.701524e+07
3.081250e+04	1.200000e+04	7.500000e+01	7.641445e+02	4.720330e-01	1.110591e-01	-9.815769e-02	-9.538795e-04	3.329171e+00	1.725456e-01	3.501716e+00	-9.404714e-03	-2.315288e+00	2.914621e-01	8.248172e-02	-5.831618e-02	2.754858e+02	8.701508e+07
3.443750e+04	1.200000e+04	7.500000e+01	7.641503e+02	4.720412e-01	1.110567e-01	-9.815769e-02	-9.522174e-04	3.329176e+00	1.725490e-01	3.501725e+00	-9.404879e-03	-2.315406e+00	2.914601e-01	8.248396e-02	-5.831499e-02	2.754862e+02	8.701506e+07
3.806250e+04	1.200000e+04	7.500000e+01	7.641554e+02	4.720486e-01	1.110545e-01	-9.815769e-02	-9.504406e-04	3.329181e+00	1.725523e-01	3.501733e+00	-9.405064e-03	-2.315540e+00	2.914583e-01	8.248599e-02	-5.831390e-02	2.754866e+02	8.701514e+07
4.168750e+04	1.200000e+04	7.500000e+01	7.641597e+02	4.720555e-01	1.110525e-01	-9.815769e-02	-9.485572e-04	3.329185e+00	1.725556e-01	3.501740e+00	-9.405268e-03	-2.315688e+00	2.914568e-01	8.248782e-02	-5.831289e-02	2.754869e+02	8.701533e+07
4.531250e+04	1.200000e+04	7.500000e+01	7.641634e+02	4.720618e-01	1.110506e-01	-9.815769e-02	-9.465759e-04	3.329188e+00	1.725587e-01	3.501746e+00	-9.405489e-03	-2.315850e+00	2.914554e-01	8.248947e-02	-5.831196e-02	2.754872e+02	8.701562e+07
4.893750e+04	1.200000e+04	7.500000e+01	7.641665e+02	4.720676e-01	1.110489e-01	-9.815769e-02	-9.445068e-04	3.329190e+00	1.725619e-01	3.501752e+00	-9.405725e-03	-2.316023e+00	2.914541e-01	8.249097e-02	-5.831108e-02	2.754874e+02	8.701599e+07
5.256250e+04	1.200000e+04	7.500000e+01	7.641692e+02	4.720729e-01	1.110474e-01	-9.815769e-02	-9.423608e-04	3.329191e+00	1.725649e-01	3.501756e+00	-9.405974e-03	-2.316207e+00	2.914530e-01	8.249232e-02	-5.831027e-02	2.754876e+02	8.701643e+07
5.618750e+04	1.200000e+04	7.500000e+01	7.641714e+02	4.720779e-01	1.110459e-01	-9.815769e-02	-9.401497e-04	3.329192e+00	1.725679e-01	3.501760e+00	-9.406234e-03	-2.316401e+00	2.914520e-01	8.249354e-02	-5.830951e-02	2.754878e+02	8.701695e+07
5.981250e+04	1.200000e+04	7.500000e+01	7.641731e+02	4.720825e-01	1.110446e-01	-9.815769e-02	-9.378858e-04	3.329192e+00	1.725709e-01	3.501763e+00	-9.406505e-03	-2.316602e+00	2.914511e-01	8.249463e-02	-5.830880e-02	2.754880e+02	8.701753e+07
6.343750e+04	1.200000e+04	7.500000e+01	7.641744e+02	4.720866e-01	1.110434e-01	-9.815769e-02	-9.355823e-04	3.329192e+00	1.725738e-01	3.501765e+00	-9.406783e-03	-2.316810e+00	2.914503e-01	8.249560e-02	-5.830814e-02	2.754881e+02	8.701817e+07
6.706250e+04	1.200000e+04	7.500000e+01	7.641754e+02	4.720905e-01	1.110423e-01	-9.815769e-02	-9.332528e-04	3.329190e+00	1.725766e-01	3.501767e+00	-9.407068e-03	-2.317023e+00	2.914497e-01	8.249644e-02	-5.830753e-02	2.754883e+02	8.701886e+07
7.068750e+04	1.200000e+04	7.500000e+01	7.641759e+02	4.720939e-01	1.110413e-01	-9.815769e-02	-9.309113e-04	3.329189e+00	1.725793e-01	3.501768e+00	-9.407357e-03	-2.317239e+00	2.914491e-01	8.249717e-02	-5.830697e-02	2.754884e+02	8.701959e+07
7.431250e+04	1.200000e+04	7.500000e+01	7.641761e+02	4.720969e-01	1.110404e-01	-9.815769e-02	-9.285721e-04	3.329186e+00	1.725819e-01	3.501768e+00	-9.407648e-03	-2.317458e+00	2.914486e-01	8.249777e-02	-5.830646e-02	2.754884e+02	8.702036e+07
7.793750e+04	1.200000e+04	7.500000e+01	7.641759e+02	4.720995e-01	1.110396e-01	-9.815769e-02	-9.262498e-04	3.329184e+00	1.725844e-01	3.501768e+00	-9.407940e-03	-2.317677e+00	2.914482e-01	8.249824e-02	-5.830601e-02	2.754885e+02	8.702117e+07
8.156250e+04	1.200000e+04	7.500000e+01	7.641753e+02	4.721016e-01	1.110390e-01	-9.815769e-02	-9.239592e-04	3.329180e+00	1.725868e-01	3.501767e+00	-9.408231e-03	-2.317897e+00	2.914479e-01	8.249857e-02	-5.830563e-02	2.754885e+02	8.702201e+07
8.518750e+04	1.200000e+04	7.500000e+01	7.641742e+02	4.721032e-01	1.110386e-01	-9.815769e-02	-9.217149e-04	3.329176e+00	1.725890e-01	3.501765e+00	-9.408520e-03	-2.318115e+00	2.914478e-01	8.249876e-02	-5.830531e-02	2.754885e+02	8.702289e+07
8.881250e+04	1.200000e+04	7.500000e+01	7.641727e+02	4.721043e-01	1.110383e-01	-9.815769e-02	-9.195319e-04	3.329171e+00	1.725910e-01	3.501762e+00	-9.408804e-03	-2.318330e+00	2.914478e-01	8.249878e-02	-5.830507e-02	2.754885e+02	8.702378e+07
9.243750e+04	1.200000e+04	7.500000e+01	7.641707e+02	4.721048e-01	1.110381e-01	-9.815769e-02	-9.174248e-04	3.329166e+00	1.725928e-01	3.501759e+00	-9.409082e-03	-2.318541e+00	2.914480e-01	8.249863e-02	-5.830492e-02	2.754884e+02	8.702471e+07
9.606250e+04	1.200000e+04	7.500000e+01	7.641682e+02	4.721046e-01	1.110382e-01	-9.815769e-02	-9.154080e-04	3.329161e+00	1.725944e-01	3.501755e+00	-9.409353e-03	-2.318748e+00	2.914483e-01	8.249828e-02	-5.830486e-02	2.754883e+02	8.702565e+07
9.968750e+04	1.200000e+04	7.500000e+01	7.641650e+02	4.721036e-01	1.110385e-01	-9.815769e-02	-9.134960e-04	3.329154e+00	1.725957e-01	3.501750e+00	-9.409615e-03	-2.318948e+00	2.914488e-01	8.249772e-02	-5.830491e-02	2.754881e+02	8.702663e+07
1.033125e+05	1.200000e+04	7.500000e+01	7.641612e+02	4.721018e-01	1.110391e-01	-9.815769e-02	-9.117027e-04	3.329147e+00	1.725966e-01	3.501744e+00	-9.409867e-03	-2.319142e+00	2.914495e-01	8.249692e-02	-5.830508e-02	2.754879e+02	8.702762e+07
1.069375e+05	1.200000e+04	7.500000e+01	7.641567e+02	4.720990e-01	1.110399e-01	-9.815769e-02	-9.100420e-04	3.329139e+00	1.725973e-01	3.501737e+00	-9.410108e-03	-2.319328e+00	2.914505e-01	8.249585e-02	-5.830540e-02	2.754877e+02	8.702865e+07
1.105625e+05	1.200000e+04	7.500000e+01	7.641513e+02	4.720952e-01	1.110410e-01	-9.815769e-02	-9.085272e-04	3.329131e+00	1.725975e-01	3.501728e+00	-9.410337e-03	-2.319506e+00	2.914517e-01	8.249448e-02	-5.830586e-02	2.754874e+02	8.702970e+07
1.141875e+05	1.200000e+04	7.500000e+01	7.641449e+02	4.720902e-01	1.110425e-01	-9.815769e-02	-9.071714e-04	3.329122e+00	1.725972e-01	3.501719e+00	-9.410553e-03	-2.319675e+00	2.914533e-01	8.249277e-02	-5.830651e-02	2.754870e+02	8.703079e+07
1.178125e+05	1.200000e+04	7.500000e+01	7.641375e+02	4.720838e-01	1.110444e-01	-9.815769e-02	-9.059872e-04	3.329111e+00	1.725965e-01	3.501708e+00	-9.410756e-03	-2.319836e+00	2.914553e-01	8.249069e-02	-5.830735e-02	2.754866e+02	8.703193e+07
1.214375e+05	1.200000e+04	7.500000e+01	7.641289e+02	4.720758e-01	1.110468e-01	-9.815769e-02	-9.049870e-04	3.329100e+00	1.725953e-01	3.501696e+00	-9.410944e-03	-2.319987e+00	2.914576e-01	8.248818e-02	-5.830842e-02	2.754860e+02	8.703311e+07
1.250625e+05	1.200000e+04	7.500000e+01	7.641188e+02	4.720661e-01	1.110496e-01	-9.815769e-02	-9.041828e-04	3.329088e+00	1.725934e-01	3.501682e+00	-9.411119e-03	-2.320128e+00	2.914605e-01	8.248518e-02	-5.830975e-02	2.754854e+02	8.703436e+07
1.286875e+05	1.200000e+04	7.500000e+01	7.641072e+02	4.720545e-01	1.110531e-01	-9.815769e-02	-9.035864e-04	3.329075e+00	1.725908e-01	3.501666e+00	-9.411278e-03	-2.320261e+00	2.914639e-01	8.248164e-02	-5.831136e-02	2.754847e+02	8.703568e+07
1.323125e+05	1.200000e+04	7.500000e+01	7.640937e+02	4.720406e-01	1.110572e-01	-9.815769e-02	-9.032089e-04	3.329060e+00	1.725875e-01	3.501648e+00	-9.411424e-03	-2.320385e+00	2.914679e-01	8.247748e-02	-5.831331e-02	2.754839e+02	8.703709e+07
1.359375e+05	1.200000e+04	7.500000e+01	7.640781e+02	4.720242e-01	1.110620e-01	-9.815769e-02	-9.030649e-04	3.329044e+00	1.725832e-01	3.501628e+00	-9.411557e-03	-2.320501e+00	2.914727e-01	8.247259e-02	-5.831564e-02	2.754829e+02	8.703861e+07
1.395625e+05	1.200000e+04	7.500000e+01	7.640602e+02	4.720050e-01	1.110677e-01	-9.815769e-02	-9.031589e-04	3.329027e+00	1.725781e-01	3.501605e+00	-9.411676e-03	-2.320609e+00	2.914783e-01	8.246695e-02	-5.831837e-02	2.754818e+02	8.704026e+07
1.431875e+05	1.200000e+04	7.500000e+01	7.640412e+02	4.719843e-01	1.110738e-01	-9.815769e-02	-9.035192e-04	3.329009e+00	1.725721e-01	3.501581e+00	-9.411770e-03	-2.320699e+00	2.914842e-01	8.246095e-02	-5.832133e-02	2.754806e+02	8.704179e+07
1.812500e+03	1.680000e+04	7.500000e+01	7.640594e+02	4.719626e-01	1.110800e-01	-9.815769e-02	-9.614405e-04	3.329064e+00	1.725399e-01	3.501603e+00	-9.404199e-03	-2.314918e+00	2.914848e-01	8.245875e-02	-5.832555e-02	2.754809e+02	8.702878e+07
5.437500e+03	1.680000e+04	7.500000e+01	7.640775e+02	4.719827e-01	1.110741e-01	-9.815769e-02	-9.607544e-04	3.329080e+00	1.725459e-01	3.501626e+00	-9.404152e-03	-2.314864e+00	2.914791e-01	8.246455e-02	-5.832266e-02	2.754820e+02	8.702739e+07
9.062500e+03	1.680000e+04	7.500000e+01	7.640931e+02	4.720002e-01	1.110689e-01	-9.815769e-02	-9.599768e-04	3.329094e+00	1.725511e-01	3.501646e+00	-9.404135e-03	-2.314835e+00	2.914741e-01	8.246963e-02	-5.832013e-02	2.754830e+02	8.702617e+07
1.268750e+04	1.680000e+04	7.500000e+01	7.641066e+02	4.720157e-01	1.110643e-01	-9.815769e-02	-9.590699e-04	3.329107e+00	1.725559e-01	3.501663e+00	-9.404149e-03	-2.314832e+00	2.914698e-01	8.247408e-02	-5.831791e-02	2.754839e+02	8.702518e+07